LAMMPS (13 Jan 2016)
Reading data file ...
  triclinic box = (0 0 0) to (27.1682 26.6193 49.6022) with tilt (5.43365 0 0)
  1 by 1 by 1 MPI processor grid
  reading atoms ...
  1008 atoms
Neighbor list info ...
  1 neighbor list requests
  update every 1 steps, delay 0 steps, check yes
  max neighbors/atom: 2000, page size: 100000
  master list distance cutoff = 7.72488
  ghost atom cutoff = 7.72488
Setting up cg style minimization ...
  Unit style: metal
Memory usage per processor = 3.3861 Mbytes
Step Temp Press CPU Pxx Pyy Pzz Pxy Pxz Pyz KinEng PotEng TotEng Volume Lx Ly Lz Atoms 
       0            0   -10658.308            0   -11355.601   -11218.367   -9400.9544   -336.15538   -213.02741   -173.93615            0   -3311.7979   -3311.7979    35872.267    27.168226    26.619316    49.602167     1008 
       1            0   -9706.8209 0.0035610199   -10372.838   -10232.891   -8514.7335   -351.06453   -214.26762   -174.79935            0    -3312.444    -3312.444    35771.353    27.141057    26.593018    49.561103     1008 
       2            0   -8744.9503 0.0071349144   -9378.0653   -9235.8854   -7620.9002   -366.03354   -215.62026   -175.72759            0   -3313.0269   -3313.0269    35670.933    27.113889    26.566759    49.520393     1008 
       3            0   -7773.0824  0.010716915   -8371.4983    -8227.659     -6720.09   -381.06424   -217.11307   -176.73737            0   -3313.5464   -3313.5464     35571.06    27.086721    26.540544    49.480099     1008 
       4            0   -6791.8147  0.014303923   -7353.5155   -7208.7094   -5813.2193   -396.16614   -218.78102   -177.84992            0   -3314.0021   -3314.0021    35471.803    27.059553    26.514383    49.440303     1008 
       5            0   -5802.3095  0.017889977   -6324.9696   -6180.0595   -4901.8996   -411.34166    -220.6677   -179.09093            0   -3314.3939   -3314.3939    35373.258    27.032385    26.488289     49.40112     1008 
       6            0   -4806.1202  0.021485806   -5286.9944   -5143.0789   -3988.2873   -426.60223   -222.82983    -180.4932            0   -3314.7217   -3314.7217    35275.565    27.005216    26.462282    49.362714     1008 
       7            0   -3805.4178  0.025087833   -4241.1106   -4099.6484   -3075.4945   -441.97527   -225.36469   -182.11374            0   -3314.9857   -3314.9857    35178.941    26.978048     26.43639    49.325341     1008 
       8            0   -2804.1204  0.028692961   -3190.1848   -3053.2317   -2168.9447   -457.52234   -228.43343    -184.0479            0   -3315.1864   -3315.1864    35083.746     26.95088    26.410661    49.289422     1008 
       9            0   -1809.8512   0.03230691   -2139.8829   -2010.5996   -1279.0711   -473.29412    -232.2734   -186.43068            0   -3315.3247   -3315.3247     34990.66    26.923712    26.385189    49.255756     1008 
      10            0   -839.69081  0.048139811   -1102.8251   -986.90155   -429.34574   -489.52661   -237.49568   -189.61253            0   -3315.4031   -3315.4031    34901.245    26.896543    26.360183    49.226168     1008 
      11            0    48.269014  0.051760912   -122.07973   -33.745909    300.63268   -506.93208    -246.0915   -194.74856            0   -3315.4281   -3315.4281     34820.86    26.869375    26.336368    49.206904     1008 
      12            0   -25.927117  0.055408001   -5.9390014   -13.001959   -58.840389   -523.33352   -268.91251   -208.01318            0   -3315.4353   -3315.4353    34830.011    26.855058    26.330791    49.256506     1008 
      13            0    923.32844   0.06264782    986.84943    932.91337    850.22253    -538.5588   -266.20353   -202.78853            0   -3315.4607   -3315.4607    34745.282    26.831001    26.311385    49.217014     1008 
      14            0     1602.517  0.066303968    1722.4922    1329.5296    1755.5292    -562.1546   -221.64642   -147.52623            0    -3315.871    -3315.871    34694.634    26.810469    26.319677    49.167412     1008 
      15            0    501.36794  0.069968939     574.5546    225.54313    704.00611   -542.63298   -217.24065   -147.27916            0   -3315.9834   -3315.9834    34794.824    26.837637    26.342634    49.216549     1008 
      16            0   -92.648264  0.077220917   -56.960834   -294.09505    73.111097   -525.46511   -218.92365   -155.14442            0   -3315.9947   -3315.9947    34849.327    26.853763    26.348826    49.252466     1008 
      17            0   -3.5582657  0.080873966   -20.140228    91.014346   -81.548915   -497.61051   -226.18599   -179.88735            0    -3316.004    -3316.004    34843.252     26.85719    26.322206    49.287389     1008 
      18            0    452.84981  0.084544897     455.1502    344.56484    558.83439   -518.57879   -212.04106   -156.13194            0    -3316.064    -3316.064    34802.006    26.845097    26.329389    49.237787     1008 
      19            0   -585.28364  0.088197947   -605.36813   -753.35727   -397.12554   -507.34051   -208.13318   -151.53494            0   -3316.0983   -3316.0983    34897.581    26.869121    26.356008    49.279039     1008 
      20            0   -1457.2595  0.091853857   -1480.0828    -1617.434   -1274.2615   -494.22546   -204.96354   -150.00999            0    -3316.132    -3316.132    34981.047    26.888253      26.3737    49.328642     1008 
      21            0   -1109.0296  0.095523834   -1039.8281   -1044.4553   -1242.8055     -485.887   -197.91078   -151.12523            0   -3316.4611   -3316.4611    34960.477    26.872955    26.347081    49.377537     1008 
      22            0   -82.958388   0.09920001   -4.2701676   -5.5364812   -239.06851   -497.38525   -195.18346   -148.65563            0   -3316.4976   -3316.4976    34865.826    26.850078    26.324581    49.327935     1008 
      23            0    184.49595   0.10659099    197.60688    196.89756    158.98343   -496.63136   -184.44201   -139.91079            0   -3316.5007   -3316.5007    34840.285    26.849736    26.324147     49.29324     1008 
      24            0   -55.203547   0.11386991   -169.39082   -170.34535    174.12553   -487.09124   -166.65681   -125.67218            0   -3316.5055   -3316.5055    34860.317    26.865342    26.339222     49.26472     1008 
      25            0   -55.329622   0.11752295   -284.23256   -107.62565    225.86935   -455.35386   -115.78078    -94.21637            0   -3316.9911   -3316.9911     34875.98    26.874748    26.332566    49.282059     1008 
      26            0    203.77252   0.12120581    230.20161    220.33489    160.78107   -485.51925   -142.54261    -105.4539            0   -3316.9981   -3316.9981    34855.165     26.84758    26.322434    49.321464     1008 
      27            0   -70.069375   0.12852287    59.329036   -40.000112   -229.53705    -494.6943   -154.34991   -110.15605            0   -3317.0006   -3317.0006    34881.439    26.844692    26.327383    49.354675     1008 
      28            0   -646.71254   0.13219786   -695.92276   -754.71678   -489.49809   -473.75789   -126.11967     -89.9118            0   -3317.0668   -3317.0668    34934.581     26.87186    26.350129    49.337265     1008 
      29            0    288.49522   0.13587284    199.21504    195.48523    470.78539   -476.94681   -114.65439   -83.230547            0    -3317.118    -3317.118    34849.873    26.855141    26.329071    49.287663     1008 
      30            0    474.92511    0.1395278    433.47707      643.141    348.15724   -461.29815   -115.37842   -95.570532            0   -3317.2747   -3317.2747    34841.409    26.847685    26.303516    49.337265     1008 
      31            0   -508.15956   0.14319801   -543.43462   -416.56518   -564.47889   -456.43174   -114.23365   -90.340177            0   -3317.3053   -3317.3053      34932.3    26.867974    26.330135    49.378645     1008 
      32            0   -1216.4327   0.14688587   -1203.2633   -1264.4608    -1181.574   -464.00973   -111.14934   -77.858251            0    -3317.321    -3317.321    34999.356    26.878628    26.356754    49.403877     1008 
      33            0   -1324.3314   0.15058088   -1150.5914   -1656.1288   -1166.2741   -501.04638   -102.31081   -46.683233            0   -3317.4333   -3317.4333    35013.614    26.866037    26.383374    49.397277     1008 
      34            0   -352.00277     0.154284   -173.05212   -613.06606   -269.89014   -507.04022    -100.4531   -47.910754            0   -3317.4912   -3317.4912    34924.262    26.844968    26.356754    49.359689     1008 
      35            0      88.6774   0.16160989     220.8322   -74.306569    119.50657   -498.60992   -97.941117   -53.532624            0   -3317.4983   -3317.4983    34884.145    26.839883    26.339139    49.345311     1008 
      36            0   -10.095258   0.16889882   -75.582323    73.016152   -27.719602   -453.73617   -89.409396   -71.294022            0   -3317.5053   -3317.5053    34893.696    26.859587    26.319997    49.358484     1008 
      37            0    529.42423   0.17258883     371.5059    729.49928     487.2675   -429.80305   -44.888551   -46.865646            0   -3317.8779   -3317.8779    34860.726    26.855924     26.29825    49.359356     1008 
      38            0   -320.24766   0.17625499   -437.11247   -229.28389   -294.34662   -433.61882   -45.878879   -39.433659            0   -3317.9096   -3317.9096    34939.342    26.870293     26.32487    49.394216     1008 
      39            0   -688.63571   0.17994785   -617.82277   -816.47679   -631.60757   -469.09572   -52.173528   -22.201029            0   -3317.9392   -3317.9392    34975.222    26.861366    26.351489    49.411409     1008 
      40            0   -151.71726   0.18364692    97.490673    -417.2456   -135.39684   -506.86622   -56.838466   -8.0356492            0   -3317.9864   -3317.9864    34927.901    26.834198    26.352352    49.392895     1008 
      41            0     169.1608   0.19098592    287.13684    61.557577    158.78799    -481.8717   -48.835911   -17.442827            0    -3317.993    -3317.993    34898.587    26.839065    26.331987    49.380652     1008 
      42            0   -16.310549   0.19827294   -67.052971    32.941132   -14.819809   -446.49841   -39.761039   -28.386389            0   -3317.9981   -3317.9981    34915.552    26.857886    26.322155    49.388478     1008 
      43            0    338.06748   0.20197487    163.83959    612.66888    237.69397   -413.23257   -17.918793   -30.218984            0   -3318.1694   -3318.1694    34892.351    26.861445    26.295535    49.399078     1008 
      44            0   -331.90111   0.20564699    -440.9587   -209.90358   -344.84106   -425.71442   -19.473896   -19.362295            0   -3318.1886   -3318.1886    34954.076    26.869773    26.322155    49.421098     1008 
      45            0    -552.0533   0.20934796   -491.50982   -686.27511   -478.37499   -463.79355   -23.522306   0.91315554            0   -3318.2053   -3318.2053    34974.935    26.859129    26.348774    49.420209     1008 
      46            0    143.02443    0.2130599     343.8613   -121.43197    206.64395   -498.37103   -25.842689    14.612323            0    -3318.229    -3318.229    34911.956    26.831961    26.345629    49.387063     1008 
      47            0     320.0421   0.21675301    337.44488    322.60396    300.07746   -455.97001   -14.077592   -1.0030596            0    -3318.273    -3318.273     34898.38     26.84462    26.319009    49.394485     1008 
      48            0   -270.31033   0.22404385   -321.78951   -227.04307   -262.09841    -437.5614   -11.336319   -5.1599175            0   -3318.2839   -3318.2839    34952.957    26.863218    26.327546    49.421452     1008 
      49            0   -683.00714   0.23134589   -806.67118   -575.75078   -666.59945   -418.62942   -7.5398998   -9.7777779            0     -3318.29     -3318.29    34992.055    26.878496    26.330452    49.443153     1008 
      50            0   -552.21498   0.23505592   -858.09986   -167.97993   -630.56514   -373.51403    7.4426952   -23.210636            0   -3318.3697   -3318.3697    34985.149    26.892203    26.303833      49.4582     1008 
      51            0    113.89337   0.24240494   -76.730618    396.66967    21.741067   -403.24481    4.6951947   -13.345212            0   -3318.3821   -3318.3821    34923.674    26.867586    26.299104    49.425415     1008 
      52            0    61.806832   0.24972701   -32.374496    201.27633    16.518661   -426.03081    1.3240481    -2.590049            0   -3318.3847   -3318.3847    34928.029    26.860013    26.312413    49.420506     1008 
      53            0   -116.13814   0.25705385    -144.6668   -87.359861   -116.38776   -440.93271   -1.2061005    5.1958784            0   -3318.3851   -3318.3851    34944.049     26.85786    26.325532    49.422496     1008 
      54            0    29.048496   0.26440597    94.378517   -61.662895    54.429867    -463.4491   -4.2743346    14.727438            0   -3318.3852   -3318.3852    34930.523    26.846378    26.332836    49.410785     1008 
      55            0   -9.7316654   0.26811481    20.380737    -16.52723   -33.048503   -445.35146    26.080717    32.638206            0   -3318.6761   -3318.6761    34950.716     26.85048    26.326326     49.44402     1008 
      56            0     177.8927   0.27541494    46.810159    212.31352    274.55442   -423.60581    42.233662    34.364811            0     -3318.68     -3318.68    34932.537    26.860425    26.318429    49.414827     1008 
      57            0   -150.43895   0.28274894   -464.07924   -95.648351    108.41073   -395.06289    58.575029    36.140212            0   -3318.6862   -3318.6862    34961.844    26.883253    26.322803    49.406078     1008 
      58            0   -108.31879   0.28646278   -456.18048    8.2769428    122.94716   -379.69494    87.360586    53.969728            0   -3318.9446   -3318.9446    34974.332    26.885717    26.316652    49.430746     1008 
      59            0    37.624284   0.29377484   -190.33832    120.82589    182.38528   -399.09527    77.794471    54.851836            0   -3318.9479   -3318.9479    34961.676    26.872133    26.316894    49.437384     1008 
      60            0   -86.781276   0.30113482   -87.474456   -90.648584   -82.220789   -433.30884    57.879509     56.42622            0   -3318.9494   -3318.9494    34974.578     26.85499    26.327561    49.467147     1008 
      61            0    33.980175   0.30849886    70.084642    23.642106    8.2137777   -439.73944      55.2351    56.788439            0   -3318.9496   -3318.9496    34963.746    26.849251    26.325747    49.465804     1008 
      62            0   -18.019521    0.3122139    -52.75736   -288.39908    287.09787   -443.30125    98.608535    102.41288            0   -3319.1739   -3319.1739    34981.405    26.856101    26.348563    49.435321     1008 
      63            0    97.105416   0.31591702    100.38036    117.48921    73.446677   -426.44634    83.400691    75.967141            0   -3319.1939   -3319.1939    34974.918    26.851281    26.321995    49.484924     1008 
      64            0     -165.251    0.3232398   -165.86657   -114.59428   -215.29214   -420.79052    80.844197    71.862817            0   -3319.1962   -3319.1962    34999.674    26.857273    26.324846     49.50354     1008 
      65            0   -329.99161   0.33054185   -330.49966   -249.83307   -409.64209   -416.71808    78.676223    68.390579            0   -3319.1973   -3319.1973    35015.542    26.860858    26.325769    49.517637     1008 
      66            0   -142.78617   0.33424187   -80.165483    206.25942   -554.45245   -405.11609    65.196148    45.863123            0   -3319.2322   -3319.2322    35004.833    26.852287    26.299774    49.567239     1008 
      67            0    202.19242   0.33792591    246.10813    379.06289   -18.593762   -418.92646    78.733712    65.643494            0   -3319.2464   -3319.2464    34971.455    26.846148    26.307029    49.517637     1008 
      68            0   -144.37654   0.34527898   -146.57001   -147.48232   -139.07728   -423.09769    89.909381    82.132845            0   -3319.2515   -3319.2515    35001.421    26.856939    26.328981    49.498851     1008 
      69            0   -69.799079   0.35263991   -95.340486   -193.95602    79.899264   -430.17752    98.800854     94.85234            0   -3319.2525   -3319.2525    34993.262    26.857017    26.337502    49.471157     1008 
      70            0    138.40123    0.3599968    127.06954    61.389949    226.74418   -430.51208    96.714573    91.417295            0   -3319.2541   -3319.2541    34974.701    26.851523    26.329309    49.470423     1008 
      71            0    27.622409    0.3673079    44.305816    131.01286   -92.451455   -418.92842    84.808713    73.121627            0   -3319.2582   -3319.2582    34987.262    26.851993    26.316628    49.511171     1008 
      72            0   -207.25029   0.37465286   -203.85814   -159.59007   -258.30265   -418.94892    87.385382    77.515997            0   -3319.2597   -3319.2597    35008.499    26.857965     26.32606    49.512462     1008 
      73            0   -66.884055   0.37836289   -87.210241   -254.67494    141.23302   -435.20401    102.82393    101.97222            0   -3319.2663   -3319.2663    34993.627    26.856369    26.342831     49.46286     1008 
      74            0    276.43124   0.38572383    276.07158    199.82199    353.40015   -432.63237    98.403498    93.446431            0   -3319.2711   -3319.2711    34963.514    26.847725    26.326513     49.46685     1008 
      75            0    177.92183   0.38940096    193.04575    348.78539   -8.0656395   -414.21909     85.17288    69.527174            0   -3319.2805   -3319.2805    34975.882    26.849217    26.307982    49.516452     1008 
      76            0   -106.85254   0.39672995   -104.45944    7.1647481   -223.26294   -413.95844    87.241472    73.616003            0   -3319.2827   -3319.2827     35001.58    26.856182    26.318493    49.520197     1008 
      77            0   -44.193532   0.40408802    -47.43589   -109.84113    24.696427   -427.60012    96.935648    91.314278            0   -3319.2842   -3319.2842    34994.022    26.854828    26.332215    49.486199     1008 
      78            0    88.965955   0.41142988    90.612095     45.00533    131.28044   -427.94094    96.412075    90.007278            0   -3319.2849   -3319.2849    34982.013    26.851652    26.327676    49.483599     1008 
      79            0    21.207864   0.41874194    21.155335    168.00902   -125.54076   -412.22871    87.406036     71.78708            0   -3319.2889   -3319.2889    34990.495    26.853793    26.313143    49.518983     1008 
      80            0   -396.71813   0.42606878   -407.19589   -322.76112   -460.19738   -411.74566    89.736527    77.059526            0   -3319.2938   -3319.2938    35029.101    26.863394    26.327785    49.528342     1008 
      81            0   -284.00481   0.42978692   -271.46002   -514.37211   -66.182295   -437.79542    105.63367    108.33309            0   -3319.3249   -3319.3249    35018.441    26.858255    26.351199     49.47874     1008 
      82            0     104.6928   0.43714595    124.92614   -39.381994    228.53424   -436.25126    103.67575    102.57596            0   -3319.3302   -3319.3302    34983.421    26.849613    26.335915    49.473866     1008 
      83            0    37.306471   0.44445992    32.555526    87.198653   -7.8347643   -417.39971     96.71725    84.527913            0   -3319.3341   -3319.3341    34991.417    26.853751    26.320993    49.505596     1008 
      84            0   -74.633242   0.45180392   -81.564377   -45.085522   -97.249826   -417.49023    97.133084     85.84832            0   -3319.3344   -3319.3344    35001.585    26.856255    26.324985    49.507858     1008 
      85            0   -10.482413   0.45917892    11.595337   -170.80976    127.76719   -436.27601    103.89163    103.70202            0   -3319.3355   -3319.3355    34994.346    26.851866    26.339681    49.478087     1008 
      86            0    558.70828   0.46653295    586.93894    505.74401     583.4419   -434.05445    103.88179    98.266841            0    -3319.346    -3319.346    34944.368    26.839717    26.319065    49.468506     1008 
      87            0    438.86873   0.47023082    408.84489    676.29529    231.46602   -400.86393    99.663494    74.829407            0   -3319.3969   -3319.3969    34961.629    26.848262    26.297317    49.518108     1008 
      88            0   -51.260101   0.47752881   -86.785254     99.11266   -166.10771   -401.80088    100.78433      80.2808            0   -3319.4036   -3319.4036    35005.954    26.858862    26.314502    49.528954     1008 
      89            0    2.6685699   0.48488879    7.8176168   -17.437164    17.625257   -420.60363    105.14204    95.802542            0   -3319.4042   -3319.4042    34999.662    26.853735    26.327795    49.504499     1008 
      90            0   -386.40296   0.48857689   -593.26439   -407.02967   -158.91483   -384.34436    134.29391     107.1799            0   -3319.5103   -3319.5103    35043.206    26.880904    26.335469    49.501563     1008 
      91            0    455.13837    0.4922688    358.27791    478.71027    528.42693   -402.64479    129.45216    107.22171            0   -3319.5327   -3319.5327    34968.873    26.853735    26.314989    49.485019     1008 
      92            0    964.95203   0.49597788    1064.2681    1019.7991     810.7889   -428.40323    114.74937    104.99601            0   -3319.5454   -3319.5454    34927.588    26.826567    26.302862    49.499463     1008 
      93            0    702.13124   0.49969196    992.56676    751.52697        362.3   -448.04863    97.037204     101.8991            0   -3319.5921   -3319.5921    34957.619    26.816002    26.309486    49.549065     1008 
      94            0   -59.461778   0.50706792    123.27611   -49.867644    -251.7938   -429.68856    104.55384    103.57433            0   -3319.6097   -3319.6097    35026.389     26.84097    26.327984    49.565506     1008 
      95            0     1.363453   0.51440287   -7.5101725   0.52963803    11.070893   -406.88091    125.69434    110.34917            0   -3319.6138   -3319.6138    35018.617    26.856137    26.326929    49.528507     1008 
      96            0   -398.49864   0.51809978    -539.0248   -276.09759   -380.37354   -365.68095      142.557    109.13477            0   -3319.7641   -3319.7641    35071.718    26.877654    26.325229      49.5671     1008 
      97            0     387.9102   0.52540088    334.33479    486.69561    342.70021   -385.55041    142.67033    115.68566            0   -3319.7817   -3319.7817    35001.343    26.853543    26.311597    49.537708     1008 
      98            0    852.11023   0.53276992    927.24856     849.6672    779.41494   -412.66293    140.11293    126.98778            0   -3319.7879   -3319.7879    34961.711    26.832732    26.311214    49.520713     1008 
      99            0    644.02825   0.53649998    927.97353    386.40304    617.70817   -452.38712    133.53962    148.16797            0   -3319.8363   -3319.8363     34986.45    26.819025    26.337833    49.530972     1008 
     100            0   -54.946608   0.54388881    123.15654   -260.38252   -27.613846    -427.7659    136.58931    140.99359            0   -3319.8518   -3319.8518    35050.526    26.842797     26.34751    49.559532     1008 
     101            0  -0.23461822   0.55120492   -5.4228564    4.6729028  0.046098963   -389.12452    146.19029    126.39352            0   -3319.8571   -3319.8571    35045.685    26.858026    26.328058     49.56118     1008 
     102            0    555.70446   0.55491781    737.66374    591.16516    338.28449   -412.45316    130.37595    122.77103            0   -3319.8781   -3319.8781    35000.598    26.830858    26.315165    49.571814     1008 
     103            0   -38.256902   0.55864096    240.47439   -30.886623   -324.35848   -415.63747     117.7825    119.27505            0   -3319.9251   -3319.9251    35062.053    26.835514     26.33045    49.621416     1008 
     104            0   -37.781583   0.56234479   -50.822731     -40.0825   -22.439519   -378.69339    149.76009    128.94177            0   -3319.9405   -3319.9405    35059.765    26.860732    26.330333    49.571814     1008 
     105            0    56.289813    0.5696938    45.878841    58.429507    64.561091    -379.6482     150.0822    129.13788            0   -3319.9408   -3319.9408    35051.137    26.858535    26.328048     49.56797     1008 
     106            0    144.79972   0.57705593    142.31225    151.41382    140.67311   -381.14927    149.80338    129.14484            0    -3319.941    -3319.941    35043.153    26.856009      26.3259    49.565383     1008 
     107            0    120.00366   0.58077598    363.04273    139.95422   -142.98598   -406.51035    123.64075    121.18079            0   -3319.9676   -3319.9676    35052.971    26.836009    26.326556    49.614985     1008 
     108            0   -342.70852   0.58814502   -282.20082   -353.93915    -391.9856   -380.04915    141.01719    126.26797            0    -3319.977    -3319.977    35094.845    26.861503    26.338125    49.605309     1008 
     109            0    -351.6608   0.59183097   -580.60581   -381.02936   -93.347223   -343.59909     172.9091    136.65242            0   -3319.9861   -3319.9861    35094.115    26.886966    26.338971    49.555707     1008 
     110            0    115.13979   0.59916186   -101.68452    107.32303    339.78086    -348.1497    174.83825    137.78282            0   -3319.9925   -3319.9925     35051.47    26.876058    26.327676    49.536823     1008 
     111            0    121.87911   0.60287595    182.30778    131.31017    52.019376   -380.92216    144.71137     128.2231            0   -3319.9979   -3319.9979    35054.557    26.852106    26.327119    49.586425     1008 
     112            0   -33.732467   0.61025095     22.77973   -31.622668   -92.354463   -379.29058    144.13986    127.87896            0   -3319.9986   -3319.9986    35068.957    26.855704    26.330905    49.593015     1008 
     113            0   -45.279944     0.617594   -81.452945     -49.7856   -4.6012874   -368.00835    154.26681    131.15076            0   -3319.9998   -3319.9998    35069.032    26.863942    26.331382    49.577017     1008 
     114            0    29.814252   0.62493396   -8.0945392     28.56663    68.970665   -368.32711     154.9528    131.45101            0        -3320        -3320    35062.083    26.862515    26.329567    49.573242     1008 
     115            0    40.490199   0.63231683    100.80065    46.504932   -25.834984   -380.02191    144.20267    127.95209            0   -3320.0002   -3320.0002    35062.386    26.853857    26.329097     49.59054     1008 
     116            0   -74.506266   0.63968492   -12.100568   -73.490604   -137.92763   -379.36079     143.2179    127.50225            0   -3320.0005   -3320.0005    35073.146    26.856095    26.331885    49.596372     1008 
     117            0   -105.04708   0.64700294    -283.5827    -122.7308    91.172259   -349.38259    169.49153    136.06599            0   -3320.0063   -3320.0063    35074.271     26.87767    26.333343    49.555406     1008 
     118            0    221.14799   0.65432501    36.707214     217.7475    408.98927   -350.43307    172.32335    137.27838            0   -3320.0096   -3320.0096    35044.774    26.871374    26.325526    49.540038     1008 
     119            0    231.18397   0.65804386    306.06498    248.33153     139.1554   -378.12553    143.76972     127.7248            0   -3320.0302   -3320.0302    35050.135    26.849306    26.324836     49.58964     1008 
     120            0   -62.525567    0.6654129   -9.9806102   -60.470395   -117.12569   -373.20329    144.31308    127.60293            0   -3320.0328   -3320.0328    35077.198    26.857386     26.33204    49.599426     1008 
     121            0   -118.78678   0.67275286   -186.04112   -130.50508   -39.814131   -358.43735    157.29666     132.0296            0   -3320.0346   -3320.0346     35081.26    26.868929    26.333961    49.580242     1008 
     122            0    41.416498   0.68007398   -49.135566    34.496094    138.88897   -356.78529    160.97077    133.45909            0   -3320.0355   -3320.0355    35066.275    26.867578     26.33021    49.568615     1008 
     123            0    115.35141   0.68744683     189.8329    127.85892    28.362403   -376.26636    142.99609    127.25441            0    -3320.037    -3320.037    35061.825     26.85189    26.327686    49.596036     1008 
     124            0   -51.071638   0.69483399    46.511545    -43.62446     -156.102   -377.61666    139.27974    125.77254            0   -3320.0377   -3320.0377    35077.679    26.853404    26.331608    49.608274     1008 
     125            0   -139.70873   0.70215297   -238.08602   -155.80237   -25.237804   -353.38609    160.58718    133.12038            0   -3320.0419   -3320.0419    35084.187    26.872238    26.334787    49.576718     1008 
     126            0    69.179651   0.70947194   -58.253988    59.199322    206.59362   -351.33294    165.24036    134.94994            0   -3320.0435   -3320.0435    35064.761    26.870371    26.329923    49.561865     1008 
     127            0    180.53476   0.71686792    313.99687     202.3408    25.266602   -381.46576    136.63427    124.91964            0    -3320.048    -3320.048    35058.798    26.845777    26.326012      49.6062     1008 
     128            0   -96.546532    0.7242589    71.723736   -83.276487   -278.08685    -383.0783    130.80377    122.52344            0   -3320.0501   -3320.0501    35085.389    26.848628    26.332558    49.626216     1008 
     129            0   -210.39226   0.72795391    -326.7664   -231.40929   -73.001095   -347.20317    161.91776    133.30863            0   -3320.0615   -3320.0615    35094.295    26.875796    26.336974    49.580319     1008 
     130            0    110.97695   0.73526001   -24.082597    101.79566     255.2178   -347.02523    166.21495    135.14308            0   -3320.0647   -3320.0647    35064.789    26.870687    26.329387     49.56233     1008 
     131            0    348.76817   0.73898101    475.51141    376.63351    194.15959   -377.26813     138.3136    125.46691            0   -3320.0716   -3320.0716    35048.121    26.843519    26.322566    49.601759     1008 
     132            0   -105.42471     0.746387    135.76897   -85.852473   -366.19062   -385.91998    122.15221    119.14546            0   -3320.0783   -3320.0783    35093.213    26.843359    26.333082    49.646037     1008 
     133            0   -335.27749    0.7501018   -347.63429   -349.23353   -308.96466   -350.75106    149.01266    128.06054            0   -3320.0983   -3320.0983    35115.189    26.870527    26.340131    49.613616     1008 
     134            0    143.22111   0.75743985    78.889513    144.52576    206.24806   -347.33092    158.21849     131.8403            0   -3320.1057   -3320.1057    35071.235    26.865089    26.328989    49.582519     1008 
     135            0    569.63631   0.76476693    431.11164    576.36872    701.42857   -338.54753    169.92905    136.77404            0   -3320.1129   -3320.1129     35035.22    26.863074    26.320048    49.552144     1008 
     136            0    186.79404   0.76848483   -149.41335    139.96166    569.83382   -300.52159    191.31648    145.31876            0   -3320.1589   -3320.1589    35083.357    26.890243    26.333265    49.545214     1008 
     137            0   -162.63543   0.77216887   -329.70283   -196.01812    37.814671    -316.1494    169.08686    136.03265            0   -3320.1661   -3320.1661    35117.894    26.883054    26.339867    49.594816     1008 
     138            0    57.594161   0.77953792    26.101416     55.17017    91.510897   -332.92937    154.98029    130.63314            0   -3320.1685   -3320.1685    35099.163    26.866714    26.333224    49.611022     1008 
     139            0    1.7953771   0.78691888    4.0953834    2.3277285   -1.0369807   -336.25805    150.61591    128.83587            0   -3320.1685   -3320.1685    35104.782    26.864978     26.33423    49.620277     1008 
     140            0   -23.977177   0.79425883   -30.742116   -26.282344   -14.907073   -335.05523     151.4571     129.1496            0   -3320.1686   -3320.1686    35107.066    26.866301    26.334966    49.619672     1008 
     141            0    12.169969   0.80159998   -29.953661    4.2230487    62.240519   -331.42666     155.6584    130.86487            0   -3320.1689   -3320.1689    35103.307    26.868603      26.3346    49.610799     1008 
     142            0    319.25192   0.80901194    489.46758    358.57516    109.71303   -338.14907     82.01866    79.593965            0   -3320.1977   -3320.1977    35091.846    26.848032      26.3285      49.6441     1008 
     143            0   -59.165873   0.81641483     72.76899   -41.134457   -209.13215   -327.45671    75.536074    72.959493            0   -3320.2026   -3320.2026    35128.888    26.859886    26.338442    49.655821     1008 
     144            0   -7.0312973   0.82376385   -10.673169   -7.0711522   -3.3495704    -311.5151    88.933292    77.067579            0   -3320.2049   -3320.2049    35123.159    26.870734    26.338673    49.627243     1008 
     145            0   -7.0312973   0.94816089   -10.673169   -7.0711522   -3.3495704    -311.5151    88.933292    77.067579            0   -3320.2049   -3320.2049    35123.159    26.870734    26.338673    49.627243     1008 
Loop time of 0.948181 on 1 procs for 145 steps with 1008 atoms

99.1% CPU use with 1 MPI tasks x no OpenMP threads

Minimization stats:
  Stopping criterion = linesearch alpha is zero
  Energy initial, next-to-last, final = 
        -3311.79787071     -3320.20490131     -3320.20490131
  Force two-norm initial, final = 414.816 0.336385
  Force max component initial, final = 254.249 0.236569
  Final line search alpha, max atom move = 6.45003e-08 1.52588e-08
  Iterations, force evaluations = 145 254

MPI task timing breakdown:
Section |  min time  |  avg time  |  max time  |%varavg| %total
---------------------------------------------------------------
Pair    | 0.90711    | 0.90711    | 0.90711    |   0.0 | 95.67
Neigh   | 0.012131   | 0.012131   | 0.012131   |   0.0 |  1.28
Comm    | 0.0032096  | 0.0032096  | 0.0032096  |   0.0 |  0.34
Output  | 0.0046496  | 0.0046496  | 0.0046496  |   0.0 |  0.49
Modify  | 0          | 0          | 0          |   0.0 |  0.00
Other   |            | 0.02108    |            |       |  2.22

Nlocal:    1008 ave 1008 max 1008 min
Histogram: 1 0 0 0 0 0 0 0 0 0
Nghost:    1517 ave 1517 max 1517 min
Histogram: 1 0 0 0 0 0 0 0 0 0
Neighs:    58680 ave 58680 max 58680 min
Histogram: 1 0 0 0 0 0 0 0 0 0

Total # of neighbors = 58680
Ave neighs/atom = 58.2143
Neighbor list builds = 1
Dangerous builds = 0
Setting up cg style minimization ...
  Unit style: metal
Memory usage per processor = 3.3861 Mbytes
Step Temp Press CPU Pxx Pyy Pzz Pxy Pxz Pyz KinEng PotEng TotEng Volume Lx Ly Lz Atoms 
     145            0   -7.0312973            0   -10.673169   -7.0711522   -3.3495704    -311.5151    88.933292    77.067579            0   -3320.2049   -3320.2049    35123.159    26.870734    26.338673    49.627243     1008 
     146            0    11.722734 0.0072669983   -1.4552499    6.4195329     30.20392   -322.08173    84.614533    73.329622            0   -3320.2101   -3320.2101    35123.159    26.870734    26.338673    49.627243     1008 
     147            0   -18.427471  0.014537096   -14.521834   -8.5766987    -32.18388   -317.62476    46.377678    41.773844            0   -3320.2136   -3320.2136    35123.159    26.870734    26.338673    49.627243     1008 
     148            0   -39.059765  0.021799088   -24.938013   -18.068525   -74.172758   -320.07092    22.316632    21.901826            0   -3320.2155   -3320.2155    35123.159    26.870734    26.338673    49.627243     1008 
     149            0   -13.383352   0.02906394   -7.1192159    1.4883649   -34.519204   -324.38996    13.809591    14.791033            0   -3320.2164   -3320.2164    35123.159    26.870734    26.338673    49.627243     1008 
     150            0   0.81731402  0.036325932    5.7785717     14.13404    -17.46067   -323.73333     11.25822    12.619873            0   -3320.2167   -3320.2167    35123.159    26.870734    26.338673    49.627243     1008 
     151            0    9.0373773  0.043596029    13.985294    21.937753    -8.810915   -322.68277    10.240647    11.708018            0   -3320.2169   -3320.2169    35123.159    26.870734    26.338673    49.627243     1008 
     152            0    11.676057  0.050865889    15.940311    23.768802   -4.6809428   -322.33945     10.78978    12.115924            0   -3320.2169   -3320.2169    35123.159    26.870734    26.338673    49.627243     1008 
     153            0    11.560629  0.058131933    16.015923     23.79568    -5.129716   -322.17413    10.751461    12.028026            0   -3320.2169   -3320.2169    35123.159    26.870734    26.338673    49.627243     1008 
     154            0    12.100157  0.065394878    16.692657    24.418596   -4.8107817   -321.97987    10.323877    11.583242            0   -3320.2169   -3320.2169    35123.159    26.870734    26.338673    49.627243     1008 
     155            0    12.577832  0.072658062    17.216054    24.956708   -4.4392655   -321.92603    9.6625035    10.873773            0   -3320.2169   -3320.2169    35123.159    26.870734    26.338673    49.627243     1008 
     156            0     13.28336  0.079924107    17.482751    25.507853   -3.1405226   -322.39085    7.9422076    8.9497291            0   -3320.2169   -3320.2169    35123.159    26.870734    26.338673    49.627243     1008 
     157            0    17.294787  0.087188959    20.299525    28.627338    2.9574989   -322.86767    5.3980847    6.0681103            0   -3320.2169   -3320.2169    35123.159    26.870734    26.338673    49.627243     1008 
     158            0    20.516618  0.094450951    23.097232    31.432222    7.0203994   -322.67708    2.7359597    3.0995496            0   -3320.2169   -3320.2169    35123.159    26.870734    26.338673    49.627243     1008 
     159            0     21.14174   0.10171199    23.613633    31.938202    7.8733846   -322.62679    2.0338134    2.3045631            0   -3320.2169   -3320.2169    35123.159    26.870734    26.338673    49.627243     1008 
     160            0    21.033755   0.10897207    23.630296    31.929028    7.5419423   -322.57103    1.5975749     1.809967            0   -3320.2169   -3320.2169    35123.159    26.870734    26.338673    49.627243     1008 
     161            0    20.712069   0.11623907    23.563816    31.764605    6.8077866   -322.35531    1.2583128    1.4366625            0   -3320.2169   -3320.2169    35123.159    26.870734    26.338673    49.627243     1008 
     162            0    20.395867   0.12350798    23.365035    31.554818    6.2677487   -322.33613    1.1256891    1.2981538            0   -3320.2169   -3320.2169    35123.159    26.870734    26.338673    49.627243     1008 
     163            0    18.878171   0.13076901     22.28358    30.473214    3.8777196   -322.34134   0.63991028   0.82404895            0   -3320.2169   -3320.2169    35123.159    26.870734    26.338673    49.627243     1008 
     164            0    16.978359   0.13803411      20.8566    29.071567    1.0069106   -322.39246   0.11518864   0.28575356            0   -3320.2169   -3320.2169    35123.159    26.870734    26.338673    49.627243     1008 
     165            0     16.34498   0.14529204    20.344547    28.603401  0.086993041   -322.48602 -0.092271508  0.078468325            0   -3320.2169   -3320.2169    35123.159    26.870734    26.338673    49.627243     1008 
     166            0    16.317622   0.15255904    20.321716     28.58479  0.046359259   -322.48399  -0.10882411  0.053602576            0   -3320.2169   -3320.2169    35123.159    26.870734    26.338673    49.627243     1008 
     167            0    16.303198   0.15982604    20.307921    28.575999  0.025673417   -322.48515  -0.10537784  0.047201228            0   -3320.2169   -3320.2169    35123.159    26.870734    26.338673    49.627243     1008 
     168            0    16.291631   0.16708994    20.286884    28.563831  0.024176983   -322.48592 -0.085066384  0.046600547            0   -3320.2169   -3320.2169    35123.159    26.870734    26.338673    49.627243     1008 
     169            0    16.273095   0.17435694    20.264015    28.547835 0.0074350773    -322.4872 -0.070534377  0.045252265            0   -3320.2169   -3320.2169    35123.159    26.870734    26.338673    49.627243     1008 
     170            0    16.264492   0.18162799    20.253541    28.541147 -0.001212459    -322.4865 -0.059153695  0.044071762            0   -3320.2169   -3320.2169    35123.159    26.870734    26.338673    49.627243     1008 
     171            0    16.263395   0.18889499    20.250853    28.539779 -0.00044679164   -322.48556 -0.052680015  0.043718207            0   -3320.2169   -3320.2169    35123.159    26.870734    26.338673    49.627243     1008 
     172            0    16.261432   0.19616008    20.248762    28.538638 -0.0031051209   -322.48508 -0.045977682  0.043312341            0   -3320.2169   -3320.2169    35123.159    26.870734    26.338673    49.627243     1008 
     173            0    16.263853   0.20341897    20.251177    28.541103 -0.00072102195   -322.48479 -0.042071506  0.041472659            0   -3320.2169   -3320.2169    35123.159    26.870734    26.338673    49.627243     1008 
     174            0    16.263655   0.21068597    20.251473    28.541336 -0.0018445034   -322.48495 -0.040456297  0.038933198            0   -3320.2169   -3320.2169    35123.159    26.870734    26.338673    49.627243     1008 
     175            0    16.263655   0.22153211    20.251473    28.541336 -0.0018445034   -322.48495 -0.040456297  0.038933198            0   -3320.2169   -3320.2169    35123.159    26.870734    26.338673    49.627243     1008 
Loop time of 0.221549 on 1 procs for 30 steps with 1008 atoms

99.3% CPU use with 1 MPI tasks x no OpenMP threads

Minimization stats:
  Stopping criterion = linesearch alpha is zero
  Energy initial, next-to-last, final = 
        -3320.20490131     -3320.21691073     -3320.21691073
  Force two-norm initial, final = 0.165103 9.19607e-06
  Force max component initial, final = 0.00757137 4.05229e-07
  Final line search alpha, max atom move = 0.5 2.02615e-07
  Iterations, force evaluations = 30 60

MPI task timing breakdown:
Section |  min time  |  avg time  |  max time  |%varavg| %total
---------------------------------------------------------------
Pair    | 0.21835    | 0.21835    | 0.21835    |   0.0 | 98.56
Neigh   | 0          | 0          | 0          |   0.0 |  0.00
Comm    | 0.00076771 | 0.00076771 | 0.00076771 |   0.0 |  0.35
Output  | 0.00092006 | 0.00092006 | 0.00092006 |   0.0 |  0.42
Modify  | 0          | 0          | 0          |   0.0 |  0.00
Other   |            | 0.001511   |            |       |  0.68

Nlocal:    1008 ave 1008 max 1008 min
Histogram: 1 0 0 0 0 0 0 0 0 0
Nghost:    1517 ave 1517 max 1517 min
Histogram: 1 0 0 0 0 0 0 0 0 0
Neighs:    58680 ave 58680 max 58680 min
Histogram: 1 0 0 0 0 0 0 0 0 0

Total # of neighbors = 58680
Ave neighs/atom = 58.2143
Neighbor list builds = 0
Dangerous builds = 0
System init for write_restart ...
System init for write_data ...
Reading restart file ...
  restart file = 13 Jan 2016, LAMMPS = 13 Jan 2016
  triclinic box = (0.148746 0.140321 -0.012538) to (27.0195 26.479 49.6147) with tilt (5.37636 0 0)
  1 by 1 by 1 MPI processor grid
  1008 atoms
Changing box ...
  triclinic box = (0.148746 0.140321 -0.012538) to (27.0195 26.479 49.6147) with tilt (5.37636 0 0)
Neighbor list info ...
  1 neighbor list requests
  update every 1 steps, delay 0 steps, check yes
  max neighbors/atom: 2000, page size: 100000
  master list distance cutoff = 7.72488
  ghost atom cutoff = 7.72488
Setting up cg style minimization ...
  Unit style: metal
Memory usage per processor = 3.3861 Mbytes
Step Temp Press CPU Pxx Pyy Pzz Pxy Pxz Pyz KinEng PotEng TotEng Volume Lx Ly Lz Atoms 
     175            0    16.654858            0    20.855241    28.846235   0.26309751   -322.52276 -0.055627116  0.043773235            0   -3320.2169   -3320.2169    35123.124    26.870707    26.338673    49.627243     1008 
     176            0    16.613869 0.0072999001    20.819426    28.815321   0.20685932   -322.52486 -0.056791891  0.040706942            0   -3320.2169   -3320.2169    35123.124    26.870707    26.338673    49.627243     1008 
     177            0    16.581114  0.014605045    20.788399     28.79087   0.16407079    -322.5248   -0.0548924  0.038116498            0   -3320.2169   -3320.2169    35123.124    26.870707    26.338673    49.627243     1008 
     178            0    16.557251  0.021908045    20.767586    28.775231   0.12893688   -322.52549  -0.05318043  0.035140786            0   -3320.2169   -3320.2169    35123.124    26.870707    26.338673    49.627243     1008 
     179            0    16.532259  0.029217958    20.744795    28.757034  0.094949487   -322.52668 -0.049110504    0.0318176            0   -3320.2169   -3320.2169    35123.124    26.870707    26.338673    49.627243     1008 
     180            0    16.499154  0.036527872    20.717368    28.732209  0.047883996   -322.52696 -0.040526955  0.029216333            0   -3320.2169   -3320.2169    35123.124    26.870707    26.338673    49.627243     1008 
     181            0    16.479863  0.043831825    20.704426    28.718526  0.016637496   -322.52567 -0.037656669  0.026475433            0   -3320.2169   -3320.2169    35123.124    26.870707    26.338673    49.627243     1008 
     182            0    16.468273  0.051137924    20.698548    28.709989 -0.0037183873   -322.52482  -0.03764653  0.023768436            0   -3320.2169   -3320.2169    35123.124    26.870707    26.338673    49.627243     1008 
     183            0    16.461747  0.058440924    20.694794    28.703756 -0.013309856   -322.52559  -0.03584574  0.023064424            0   -3320.2169   -3320.2169    35123.124    26.870707    26.338673    49.627243     1008 
     184            0     16.45934   0.06574893    20.694279    28.701856 -0.018114988   -322.52499 -0.035226159  0.022333163            0   -3320.2169   -3320.2169    35123.124    26.870707    26.338673    49.627243     1008 
     185            0    16.457689  0.073056936    20.694017    28.700574 -0.021522526   -322.52487 -0.034636034   0.02080852            0   -3320.2169   -3320.2169    35123.124    26.870707    26.338673    49.627243     1008 
     186            0    16.458043  0.080359936    20.694168    28.700623 -0.020662828   -322.52532 -0.032796192    0.0183327            0   -3320.2169   -3320.2169    35123.124    26.870707    26.338673    49.627243     1008 
     187            0    16.461312  0.087668896    20.695265    28.702799 -0.014127956   -322.52665  -0.02538208  0.012287267            0   -3320.2169   -3320.2169    35123.124    26.870707    26.338673    49.627243     1008 
     188            0    16.464115  0.094969034    20.696408    28.705149 -0.0092108455   -322.52687 -0.019253323 0.0087342144            0   -3320.2169   -3320.2169    35123.124    26.870707    26.338673    49.627243     1008 
     189            0    16.467364    0.1022799    20.698162    28.708596 -0.0046660374    -322.5255 -0.011391055 0.0049655459            0   -3320.2169   -3320.2169    35123.124    26.870707    26.338673    49.627243     1008 
     190            0    16.469009   0.10958791    20.698987    28.710988 -0.0029485012   -322.52441 -0.0061054466 0.0024294923            0   -3320.2169   -3320.2169    35123.124    26.870707    26.338673    49.627243     1008 
     191            0    16.469477   0.11700583    20.698934    28.711677 -0.0021806769   -322.52438 -0.0043658489 0.0014522968            0   -3320.2169   -3320.2169    35123.124    26.870707    26.338673    49.627243     1008 
     192            0    16.470021   0.12434196     20.69878    28.712373 -0.0010888222   -322.52436 -0.0019691695 0.00058220372            0   -3320.2169   -3320.2169    35123.124    26.870707    26.338673    49.627243     1008 
     193            0    16.470161   0.13165593    20.698696    28.712616 -0.00083062291    -322.5243 -0.00083761071 0.00013027584            0   -3320.2169   -3320.2169    35123.124    26.870707    26.338673    49.627243     1008 
     194            0    16.470268   0.13896298    20.698588    28.712562 -0.00034699316    -322.5244 -0.00026932195 5.9957648e-05            0   -3320.2169   -3320.2169    35123.124    26.870707    26.338673    49.627243     1008 
     195            0    16.470331   0.14627504    20.698599    28.712465 -7.2276221e-05   -322.52438 5.0885831e-05 0.00023043179            0   -3320.2169   -3320.2169    35123.124    26.870707    26.338673    49.627243     1008 
     196            0    16.470363   0.15358186    20.698625    28.712385 7.7979054e-05   -322.52437 0.00023480804 0.00036817031            0   -3320.2169   -3320.2169    35123.124    26.870707    26.338673    49.627243     1008 
     197            0    16.470336   0.16089487    20.698629    28.712321 5.7857025e-05   -322.52437 0.00025631434 0.00040270082            0   -3320.2169   -3320.2169    35123.124    26.870707    26.338673    49.627243     1008 
     198            0    16.470285   0.16820693    20.698621    28.712249 -1.5574367e-05   -322.52436 0.0002602247 0.00041906391            0   -3320.2169   -3320.2169    35123.124    26.870707    26.338673    49.627243     1008 
     199            0    16.470279   0.17552304    20.698618    28.712238 -1.9543467e-05   -322.52437 0.0002598222 0.00041622686            0   -3320.2169   -3320.2169    35123.124    26.870707    26.338673    49.627243     1008 
     200            0    16.470278   0.18283296    20.698617    28.712231 -1.6041068e-05   -322.52438 0.00025850554 0.00040970038            0   -3320.2169   -3320.2169    35123.124    26.870707    26.338673    49.627243     1008 
     201            0    16.470279   0.19013786    20.698622    28.712225 -9.4233132e-06   -322.52438 0.00024892196 0.00038085432            0   -3320.2169   -3320.2169    35123.124    26.870707    26.338673    49.627243     1008 
     202            0    16.470282   0.19744992    20.698633    28.712217 -3.8575271e-06   -322.52439 0.00020952933 0.00030334458            0   -3320.2169   -3320.2169    35123.124    26.870707    26.338673    49.627243     1008 
     203            0    16.470283   0.20476198    20.698641    28.712223 -1.4938981e-05   -322.52439 0.0001440753 0.00021711775            0   -3320.2169   -3320.2169    35123.124    26.870707    26.338673    49.627243     1008 
     204            0    16.470291   0.21206903    20.698649    28.712241 -1.5322562e-05   -322.52439 8.5260864e-05 0.00014877609            0   -3320.2169   -3320.2169    35123.124    26.870707    26.338673    49.627243     1008 
     205            0    16.470316   0.21937895     20.69866    28.712281 5.3988664e-06   -322.52439 1.3929829e-05 6.8116339e-05            0   -3320.2169   -3320.2169    35123.124    26.870707    26.338673    49.627243     1008 
     206            0    16.470316   0.22668099    20.698662    28.712289 -1.6350048e-06   -322.52439 4.4057844e-07 4.665246e-05            0   -3320.2169   -3320.2169    35123.124    26.870707    26.338673    49.627243     1008 
     207            0    16.470317   0.23399496    20.698662    28.712292 -3.4844449e-06   -322.52438 -2.7103249e-06 3.6629641e-05            0   -3320.2169   -3320.2169    35123.124    26.870707    26.338673    49.627243     1008 
     208            0     16.47032   0.24130702    20.698663    28.712296 1.9690659e-07   -322.52438 -8.9223834e-07 2.0691979e-05            0   -3320.2169   -3320.2169    35123.124    26.870707    26.338673    49.627243     1008 
     209            0     16.47032   0.24861693    20.698663    28.712298 1.1994092e-07   -322.52438 -1.1609718e-06 1.0783902e-05            0   -3320.2169   -3320.2169    35123.124    26.870707    26.338673    49.627243     1008 
     210            0    16.470321    0.2559309    20.698663    28.712299 -3.2507011e-08   -322.52438 -8.4080063e-07 2.8419145e-06            0   -3320.2169   -3320.2169    35123.124    26.870707    26.338673    49.627243     1008 
     211            0    16.470321   0.26324081    20.698663    28.712299 1.0578348e-07   -322.52438 -3.0578276e-07 1.324374e-06            0   -3320.2169   -3320.2169    35123.124    26.870707    26.338673    49.627243     1008 
     212            0    16.470321   0.27054501    20.698663    28.712299 4.0922217e-08   -322.52438 8.8669215e-08 2.340377e-07            0   -3320.2169   -3320.2169    35123.124    26.870707    26.338673    49.627243     1008 
     213            0    16.470321   0.27785587    20.698663    28.712299 -1.0496285e-09   -322.52438 6.9428817e-08 1.1023046e-07            0   -3320.2169   -3320.2169    35123.124    26.870707    26.338673    49.627243     1008 
     214            0    16.470321   0.28516793    20.698663      28.7123 -4.3771374e-08   -322.52438 6.7449257e-09 -3.875912e-08            0   -3320.2169   -3320.2169    35123.124    26.870707    26.338673    49.627243     1008 
     215            0    16.470321   0.29249597    20.698663      28.7123 -3.1727342e-08   -322.52438 1.5110253e-08 -1.9740348e-08            0   -3320.2169   -3320.2169    35123.124    26.870707    26.338673    49.627243     1008 
     216            0    16.470321   0.29980683    20.698663      28.7123 -1.5387319e-08   -322.52438 1.3907526e-08 -8.8541212e-09            0   -3320.2169   -3320.2169    35123.124    26.870707    26.338673    49.627243     1008 
     217            0    16.470321   0.31072497    20.698663      28.7123 -9.8192541e-09   -322.52438 1.2770024e-09 -3.3297744e-09            0   -3320.2169   -3320.2169    35123.124    26.870707    26.338673    49.627243     1008 
Loop time of 0.310743 on 1 procs for 42 steps with 1008 atoms

99.1% CPU use with 1 MPI tasks x no OpenMP threads

Minimization stats:
  Stopping criterion = force tolerance
  Energy initial, next-to-last, final = 
        -3320.21690883     -3320.21690884     -3320.21690884
  Force two-norm initial, final = 5.14227e-05 6.93568e-11
  Force max component initial, final = 4.03619e-06 5.3854e-12
  Final line search alpha, max atom move = 1 5.3854e-12
  Iterations, force evaluations = 42 84

MPI task timing breakdown:
Section |  min time  |  avg time  |  max time  |%varavg| %total
---------------------------------------------------------------
Pair    | 0.30624    | 0.30624    | 0.30624    |   0.0 | 98.55
Neigh   | 0          | 0          | 0          |   0.0 |  0.00
Comm    | 0.0010622  | 0.0010622  | 0.0010622  |   0.0 |  0.34
Output  | 0.0013208  | 0.0013208  | 0.0013208  |   0.0 |  0.43
Modify  | 0          | 0          | 0          |   0.0 |  0.00
Other   |            | 0.002122   |            |       |  0.68

Nlocal:    1008 ave 1008 max 1008 min
Histogram: 1 0 0 0 0 0 0 0 0 0
Nghost:    1517 ave 1517 max 1517 min
Histogram: 1 0 0 0 0 0 0 0 0 0
Neighs:    58680 ave 58680 max 58680 min
Histogram: 1 0 0 0 0 0 0 0 0 0

Total # of neighbors = 58680
Ave neighs/atom = 58.2143
Neighbor list builds = 0
Dangerous builds = 0
Reading restart file ...
  restart file = 13 Jan 2016, LAMMPS = 13 Jan 2016
  triclinic box = (0.148746 0.140321 -0.012538) to (27.0195 26.479 49.6147) with tilt (5.37636 0 0)
  1 by 1 by 1 MPI processor grid
  1008 atoms
Changing box ...
  triclinic box = (0.148746 0.140321 -0.012538) to (27.0195 26.479 49.6147) with tilt (5.37636 0 0)
Neighbor list info ...
  1 neighbor list requests
  update every 1 steps, delay 0 steps, check yes
  max neighbors/atom: 2000, page size: 100000
  master list distance cutoff = 7.72488
  ghost atom cutoff = 7.72488
Setting up cg style minimization ...
  Unit style: metal
Memory usage per processor = 3.3861 Mbytes
Step Temp Press CPU Pxx Pyy Pzz Pxy Pxz Pyz KinEng PotEng TotEng Volume Lx Ly Lz Atoms 
     175            0    15.872455            0    19.647711    28.236438  -0.26678526   -322.44715 -0.025285977  0.034093186            0   -3320.2169   -3320.2169    35123.194    26.870761    26.338673    49.627243     1008 
     176            0    15.911406 0.0073490143    19.681878    28.265615  -0.21327629   -322.44445 -0.022223816  0.036781474            0   -3320.2169   -3320.2169    35123.194    26.870761    26.338673    49.627243     1008 
     177            0     15.94658  0.014711142    19.714771    28.291373  -0.16640515   -322.44423 -0.021774569  0.037397753            0   -3320.2169   -3320.2169    35123.194    26.870761    26.338673    49.627243     1008 
     178            0    15.972447  0.022073984    19.737029    28.308388  -0.12807657    -322.4438 -0.021901533   0.03724284            0   -3320.2169   -3320.2169    35123.194    26.870761    26.338673    49.627243     1008 
     179            0    15.997201  0.029430151    19.759324    28.326775 -0.094496568    -322.4432 -0.023430214  0.035266519            0   -3320.2169   -3320.2169    35123.194    26.870761    26.338673    49.627243     1008 
     180            0    16.026374   0.03679204    19.783018    28.349672 -0.053567936   -322.44324 -0.026673046  0.030547852            0   -3320.2169   -3320.2169    35123.194    26.870761    26.338673    49.627243     1008 
     181            0    16.043053  0.044152021    19.793736     28.36205 -0.026626635   -322.44421 -0.025842215  0.029349671            0   -3320.2169   -3320.2169    35123.194    26.870761    26.338673    49.627243     1008 
     182            0    16.051722  0.051509142    19.797563    28.368906 -0.011302682   -322.44464  -0.02302717   0.02917138            0   -3320.2169   -3320.2169    35123.194    26.870761    26.338673    49.627243     1008 
     183            0    16.058452  0.058870077    19.800793    28.375763 -0.0011987267   -322.44363 -0.020848078  0.027016748            0   -3320.2169   -3320.2169    35123.194    26.870761    26.338673    49.627243     1008 
     184            0    16.061738  0.066226006    19.801666    28.378552 0.0049962592     -322.444 -0.018615381  0.026119077            0   -3320.2169   -3320.2169    35123.194    26.870761    26.338673    49.627243     1008 
     185            0    16.064399  0.073589087    19.802376    28.380767  0.010054844    -322.4441 -0.015728345  0.025039093            0   -3320.2169   -3320.2169    35123.194    26.870761    26.338673    49.627243     1008 
     186            0    16.064827  0.080950975    19.802728    28.381396  0.010357506   -322.44365 -0.013482831  0.023608698            0   -3320.2169   -3320.2169    35123.194    26.870761    26.338673    49.627243     1008 
     187            0    16.064843  0.088310957    19.803188    28.381733 0.0096083006   -322.44278 -0.0096965319  0.020403496            0   -3320.2169   -3320.2169    35123.194    26.870761    26.338673    49.627243     1008 
     188            0    16.064834  0.095673084    19.803191    28.381621 0.0096894245   -322.44274 -0.0081726301  0.018903394            0   -3320.2169   -3320.2169    35123.194    26.870761    26.338673    49.627243     1008 
     189            0    16.064481   0.10303211     19.80258    28.380888 0.0099731048   -322.44343 -0.0061249619  0.016388243            0   -3320.2169   -3320.2169    35123.194    26.870761    26.338673    49.627243     1008 
     190            0    16.062937   0.11039114    19.801243     28.37948 0.0080889078   -322.44386 -0.0045560478  0.012095343            0   -3320.2169   -3320.2169    35123.194    26.870761    26.338673    49.627243     1008 
     191            0      16.0617   0.11775303    19.800175    28.378707 0.0062182578   -322.44392 -0.0035254131 0.0089973161            0   -3320.2169   -3320.2169    35123.194    26.870761    26.338673    49.627243     1008 
     192            0    16.059305   0.12511301    19.798129    28.377921 0.0018661782   -322.44351 -0.0013256599 0.0034525277            0   -3320.2169   -3320.2169    35123.194    26.870761    26.338673    49.627243     1008 
     193            0    16.058768   0.13247514    19.797419    28.377932 0.0009529211   -322.44357 -0.00049157966 0.0012622009            0   -3320.2169   -3320.2169    35123.194    26.870761    26.338673    49.627243     1008 
     194            0    16.058469   0.13983798    19.797262    28.377944 0.00020087599   -322.44338 -0.00026969768  0.000639973            0   -3320.2169   -3320.2169    35123.194    26.870761    26.338673    49.627243     1008 
     195            0    16.058395   0.14719296    19.797196    28.378015 -2.4915042e-05   -322.44335 -0.00020003771 0.00031355965            0   -3320.2169   -3320.2169    35123.194    26.870761    26.338673    49.627243     1008 
     196            0    16.058407   0.15455604    19.797175      28.3781 -5.4475284e-05   -322.44335 -0.00015368854 0.0001075848            0   -3320.2169   -3320.2169    35123.194    26.870761    26.338673    49.627243     1008 
     197            0    16.058447   0.16191196    19.797183    28.378173 -1.4135014e-05   -322.44336 -0.00013287227 1.2007295e-05            0   -3320.2169   -3320.2169    35123.194    26.870761    26.338673    49.627243     1008 
     198            0    16.058465   0.16928697    19.797182    28.378209 2.7489836e-06   -322.44337 -0.00013220337 -3.0258051e-05            0   -3320.2169   -3320.2169    35123.194    26.870761    26.338673    49.627243     1008 
     199            0    16.058472   0.17664814    19.797184    28.378227 4.387963e-06   -322.44337 -0.00012785363 -4.1035031e-05            0   -3320.2169   -3320.2169    35123.194    26.870761    26.338673    49.627243     1008 
     200            0    16.058477   0.18400502    19.797186    28.378239 4.8580802e-06   -322.44336 -0.00012441916 -4.6459321e-05            0   -3320.2169   -3320.2169    35123.194    26.870761    26.338673    49.627243     1008 
     201            0    16.058481   0.19136715    19.797187     28.37825 5.5586864e-06   -322.44336 -0.00012366089 -5.2373728e-05            0   -3320.2169   -3320.2169    35123.194    26.870761    26.338673    49.627243     1008 
     202            0    16.058483   0.19872212    19.797187    28.378257 4.4585487e-06   -322.44336 -0.00011893182 -5.6816339e-05            0   -3320.2169   -3320.2169    35123.194    26.870761    26.338673    49.627243     1008 
     203            0    16.058482   0.20608616    19.797186    28.378256 5.0034879e-06   -322.44336 -0.00010885359 -5.825563e-05            0   -3320.2169   -3320.2169    35123.194    26.870761    26.338673    49.627243     1008 
     204            0    16.058481     0.213449    19.797184    28.378254 4.9241945e-06   -322.44336 -9.9258122e-05 -6.1123946e-05            0   -3320.2169   -3320.2169    35123.194    26.870761    26.338673    49.627243     1008 
     205            0    16.058479   0.22080517    19.797183    28.378251 3.6150791e-06   -322.44336 -8.9256089e-05 -6.6249411e-05            0   -3320.2169   -3320.2169    35123.194    26.870761    26.338673    49.627243     1008 
     206            0    16.058477   0.22816896    19.797181    28.378247 3.0138159e-06   -322.44336 -7.7885418e-05 -6.1333142e-05            0   -3320.2169   -3320.2169    35123.194    26.870761    26.338673    49.627243     1008 
     207            0    16.058475   0.23552203    19.797178    28.378244 2.8957426e-06   -322.44336 -6.4474588e-05 -5.3156159e-05            0   -3320.2169   -3320.2169    35123.194    26.870761    26.338673    49.627243     1008 
     208            0    16.058471   0.24288297    19.797173     28.37824 7.6323221e-07   -322.44336 -3.027054e-05 -2.5569262e-05            0   -3320.2169   -3320.2169    35123.194    26.870761    26.338673    49.627243     1008 
     209            0    16.058469   0.25024319     19.79717    28.378237 1.783203e-07   -322.44336 -9.4143651e-06 -8.5250351e-06            0   -3320.2169   -3320.2169    35123.194    26.870761    26.338673    49.627243     1008 
     210            0    16.058468   0.25760102    19.797169    28.378236 -1.8037045e-07   -322.44336 -1.7487803e-06 -2.2405801e-06            0   -3320.2169   -3320.2169    35123.194    26.870761    26.338673    49.627243     1008 
     211            0    16.058468   0.26496601    19.797169    28.378236 -4.0123908e-07   -322.44336 -1.729086e-07 -7.3265335e-07            0   -3320.2169   -3320.2169    35123.194    26.870761    26.338673    49.627243     1008 
     212            0    16.058468   0.27232909    19.797169    28.378236 -1.3977993e-07   -322.44336 -5.8051899e-08 -1.5852503e-07            0   -3320.2169   -3320.2169    35123.194    26.870761    26.338673    49.627243     1008 
     213            0    16.058468   0.27968407    19.797169    28.378236 -8.1729054e-08   -322.44336 -3.9418685e-08 -7.9892607e-08            0   -3320.2169   -3320.2169    35123.194    26.870761    26.338673    49.627243     1008 
     214            0    16.058468   0.28704405    19.797169    28.378236 1.5628518e-08   -322.44336 -8.1812352e-09 1.0443979e-08            0   -3320.2169   -3320.2169    35123.194    26.870761    26.338673    49.627243     1008 
     215            0    16.058468   0.29439998    19.797169    28.378236 -2.1712481e-09   -322.44336 -9.8811144e-09 9.4251871e-09            0   -3320.2169   -3320.2169    35123.194    26.870761    26.338673    49.627243     1008 
     216            0    16.058468   0.30175805    19.797169    28.378236 -3.1150896e-09   -322.44336 -1.0941748e-08 3.8690311e-09            0   -3320.2169   -3320.2169    35123.194    26.870761    26.338673    49.627243     1008 
     217            0    16.058468   0.31274104    19.797169    28.378236 -1.2442205e-08   -322.44336 -5.4597581e-09 -1.9465199e-09            0   -3320.2169   -3320.2169    35123.194    26.870761    26.338673    49.627243     1008 
Loop time of 0.312759 on 1 procs for 42 steps with 1008 atoms

99.8% CPU use with 1 MPI tasks x no OpenMP threads

Minimization stats:
  Stopping criterion = force tolerance
  Energy initial, next-to-last, final = 
        -3320.21691261     -3320.21691261     -3320.21691261
  Force two-norm initial, final = 5.21901e-05 6.52877e-11
  Force max component initial, final = 3.97702e-06 3.75366e-12
  Final line search alpha, max atom move = 1 3.75366e-12
  Iterations, force evaluations = 42 84

MPI task timing breakdown:
Section |  min time  |  avg time  |  max time  |%varavg| %total
---------------------------------------------------------------
Pair    | 0.30828    | 0.30828    | 0.30828    |   0.0 | 98.57
Neigh   | 0          | 0          | 0          |   0.0 |  0.00
Comm    | 0.0010614  | 0.0010614  | 0.0010614  |   0.0 |  0.34
Output  | 0.0013142  | 0.0013142  | 0.0013142  |   0.0 |  0.42
Modify  | 0          | 0          | 0          |   0.0 |  0.00
Other   |            | 0.002101   |            |       |  0.67

Nlocal:    1008 ave 1008 max 1008 min
Histogram: 1 0 0 0 0 0 0 0 0 0
Nghost:    1517 ave 1517 max 1517 min
Histogram: 1 0 0 0 0 0 0 0 0 0
Neighs:    58680 ave 58680 max 58680 min
Histogram: 1 0 0 0 0 0 0 0 0 0

Total # of neighbors = 58680
Ave neighs/atom = 58.2143
Neighbor list builds = 0
Dangerous builds = 0
Reading restart file ...
  restart file = 13 Jan 2016, LAMMPS = 13 Jan 2016
  triclinic box = (0.148746 0.140321 -0.012538) to (27.0195 26.479 49.6147) with tilt (5.37636 0 0)
  1 by 1 by 1 MPI processor grid
  1008 atoms
Changing box ...
  triclinic box = (0.148746 0.140321 -0.012538) to (27.0195 26.479 49.6147) with tilt (5.37636 0 0)
Neighbor list info ...
  1 neighbor list requests
  update every 1 steps, delay 0 steps, check yes
  max neighbors/atom: 2000, page size: 100000
  master list distance cutoff = 7.72488
  ghost atom cutoff = 7.72488
Setting up cg style minimization ...
  Unit style: metal
Memory usage per processor = 3.3861 Mbytes
Step Temp Press CPU Pxx Pyy Pzz Pxy Pxz Pyz KinEng PotEng TotEng Volume Lx Ly Lz Atoms 
     175            0    16.655429            0    20.554376    29.148874   0.26303776    -322.4947 -0.039710049   0.02313165            0   -3320.2169   -3320.2169    35123.124    26.870734    26.338647    49.627243     1008 
     176            0     16.61413 0.0073618889    20.522831    29.114147   0.20541379   -322.49674 -0.041976776  0.021435001            0   -3320.2169   -3320.2169    35123.124    26.870734    26.338647    49.627243     1008 
     177            0    16.582553   0.01473403    20.499144    29.084585    0.1639296   -322.49773 -0.041978936  0.021563484            0   -3320.2169   -3320.2169    35123.124    26.870734    26.338647    49.627243     1008 
     178            0    16.558821  0.022094011     20.48292     29.06442   0.12912123   -322.49937 -0.042148752  0.021251236            0   -3320.2169   -3320.2169    35123.124    26.870734    26.338647    49.627243     1008 
     179            0     16.53509  0.029454947    20.464626    29.043623  0.097022174   -322.50122 -0.040842261   0.02145266            0   -3320.2169   -3320.2169    35123.124    26.870734    26.338647    49.627243     1008 
     180            0    16.502797  0.036814928    20.439505    29.017709  0.051176783   -322.50214 -0.036123307  0.022942984            0   -3320.2169   -3320.2169    35123.124    26.870734    26.338647    49.627243     1008 
     181            0    16.485802  0.044181108     20.42767    29.006295  0.023441146   -322.50076 -0.034916424  0.021975168            0   -3320.2169   -3320.2169    35123.124    26.870734    26.338647    49.627243     1008 
     182            0    16.475035   0.05154705    20.419877     29.00088 0.0043462962   -322.49926 -0.034632552   0.01936472            0   -3320.2169   -3320.2169    35123.124    26.870734    26.338647    49.627243     1008 
     183            0    16.468507  0.058907986     20.41316    28.997597 -0.0052355462   -322.49947 -0.032293261  0.017790507            0   -3320.2169   -3320.2169    35123.124    26.870734    26.338647    49.627243     1008 
     184            0    16.466492  0.066276073    20.411517    28.997027 -0.0090694262   -322.49878 -0.031050744  0.016590989            0   -3320.2169   -3320.2169    35123.124    26.870734    26.338647    49.627243     1008 
     185            0    16.464652  0.073632956    20.409883    28.996722 -0.012648856   -322.49845 -0.029680375  0.014276004            0   -3320.2169   -3320.2169    35123.124    26.870734    26.338647    49.627243     1008 
     186            0    16.464117  0.081001043    20.408753    28.996806 -0.013206581   -322.49867 -0.027672734  0.011573457            0   -3320.2169   -3320.2169    35123.124    26.870734    26.338647    49.627243     1008 
     187            0    16.464465  0.088363886    20.407359    28.997548 -0.011511988   -322.49936 -0.021704153 0.0064443094            0   -3320.2169   -3320.2169    35123.124    26.870734    26.338647    49.627243     1008 
     188            0    16.465343   0.09572506    20.407331    28.998339 -0.0096419023   -322.49951 -0.017283405  0.003862771            0   -3320.2169   -3320.2169    35123.124    26.870734    26.338647    49.627243     1008 
     189            0    16.467208   0.10309792    20.408815    28.999709 -0.0068991529   -322.49879 -0.011508816 0.0017614673            0   -3320.2169   -3320.2169    35123.124    26.870734    26.338647    49.627243     1008 
     190            0    16.468756   0.11046505    20.410603    29.000814 -0.0051487657   -322.49802 -0.0069874417 0.00081558717            0   -3320.2169   -3320.2169    35123.124    26.870734    26.338647    49.627243     1008 
     191            0    16.469466   0.11782598    20.411293    29.001233 -0.004126391     -322.498 -0.0048916619 0.00037808571            0   -3320.2169   -3320.2169    35123.124    26.870734    26.338647    49.627243     1008 
     192            0     16.47065   0.12518692    20.412043    29.001868 -0.0019626009   -322.49819 -0.0021561263 0.00043023982            0   -3320.2169   -3320.2169    35123.124    26.870734    26.338647    49.627243     1008 
     193            0    16.471106   0.13254809    20.412341    29.002197 -0.0012211376   -322.49816 -0.0010521154 0.00042371504            0   -3320.2169   -3320.2169    35123.124    26.870734    26.338647    49.627243     1008 
     194            0    16.471376   0.13990998    20.412224     29.00234 -0.00043493245    -322.4983 -0.00048501544 0.00039231925            0   -3320.2169   -3320.2169    35123.124    26.870734    26.338647    49.627243     1008 
     195            0    16.471502   0.14727688    20.412168    29.002428 -8.9364504e-05   -322.49825 -0.00012901652 0.00044812048            0   -3320.2169   -3320.2169    35123.124    26.870734    26.338647    49.627243     1008 
     196            0     16.47156    0.1546371    20.412127    29.002492 6.1556014e-05   -322.49821 8.173669e-05 0.00047068941            0   -3320.2169   -3320.2169    35123.124    26.870734    26.338647    49.627243     1008 
     197            0    16.471546   0.16200399    20.412079    29.002511 4.8533493e-05    -322.4982 0.00014560666 0.00045145595            0   -3320.2169   -3320.2169    35123.124    26.870734    26.338647    49.627243     1008 
     198            0    16.471508   0.16936302     20.41202    29.002508 -4.1214407e-06   -322.49817 0.0001869296 0.00042954726            0   -3320.2169   -3320.2169    35123.124    26.870734    26.338647    49.627243     1008 
     199            0    16.471498   0.17672801    20.412002    29.002507 -1.4448111e-05   -322.49818 0.00018795544 0.00042171737            0   -3320.2169   -3320.2169    35123.124    26.870734    26.338647    49.627243     1008 
     200            0    16.471494   0.18409204    20.411991    29.002507 -1.6068817e-05   -322.49818 0.00018661159 0.00041629693            0   -3320.2169   -3320.2169    35123.124    26.870734    26.338647    49.627243     1008 
     201            0    16.471493   0.19145203    20.411976     29.00251 -6.184647e-06   -322.49818 0.00018390302 0.00040322233            0   -3320.2169   -3320.2169    35123.124    26.870734    26.338647    49.627243     1008 
     202            0    16.471488   0.19881797    20.411956    29.002516 -5.9424739e-06   -322.49818 0.00016941131 0.00036061808            0   -3320.2169   -3320.2169    35123.124    26.870734    26.338647    49.627243     1008 
     203            0    16.471483   0.20618296    20.411949     29.00252 -1.8839391e-05   -322.49818 0.00014624741 0.0002921177            0   -3320.2169   -3320.2169    35123.124    26.870734    26.338647    49.627243     1008 
     204            0    16.471488   0.21354008    20.411957    29.002527 -1.8036089e-05   -322.49818 0.00013088777 0.00022210623            0   -3320.2169   -3320.2169    35123.124    26.870734    26.338647    49.627243     1008 
     205            0    16.471509   0.22090507    20.411983    29.002541 1.1698886e-06   -322.49818 0.00011079637 0.00010983704            0   -3320.2169   -3320.2169    35123.124    26.870734    26.338647    49.627243     1008 
     206            0    16.471514   0.22826409       20.412    29.002549 -6.4340074e-06   -322.49818 8.0601401e-05 6.6123151e-05            0   -3320.2169   -3320.2169    35123.124    26.870734    26.338647    49.627243     1008 
     207            0    16.471518   0.23563004    20.412007    29.002555 -7.3654188e-06   -322.49818 6.0994974e-05 4.6095643e-05            0   -3320.2169   -3320.2169    35123.124    26.870734    26.338647    49.627243     1008 
     208            0    16.471526   0.24299788    20.412013    29.002564 -1.8561147e-07   -322.49818 2.6060404e-05 1.965169e-05            0   -3320.2169   -3320.2169    35123.124    26.870734    26.338647    49.627243     1008 
     209            0    16.471528   0.25036192    20.412015     29.00257 -5.0823723e-07   -322.49819 7.4443566e-06 5.2254572e-06            0   -3320.2169   -3320.2169    35123.124    26.870734    26.338647    49.627243     1008 
     210            0    16.471529   0.25772595    20.412015    29.002572 -2.6571428e-07   -322.49819 1.1744718e-06 3.6776076e-07            0   -3320.2169   -3320.2169    35123.124    26.870734    26.338647    49.627243     1008 
     211            0    16.471529   0.26508498    20.412015    29.002572 8.4206944e-08   -322.49819 7.3874397e-07 2.0489422e-07            0   -3320.2169   -3320.2169    35123.124    26.870734    26.338647    49.627243     1008 
     212            0    16.471529   0.27245307    20.412016    29.002572 7.8522132e-08   -322.49819 2.5553936e-07 1.7911997e-07            0   -3320.2169   -3320.2169    35123.124    26.870734    26.338647    49.627243     1008 
     213            0    16.471529   0.27981806    20.412016    29.002572 -9.6370093e-10   -322.49819 1.1709877e-07 1.1991259e-07            0   -3320.2169   -3320.2169    35123.124    26.870734    26.338647    49.627243     1008 
     214            0    16.471529   0.28717804    20.412016    29.002572 -5.8986748e-08   -322.49819 -4.8843484e-08 3.0688762e-08            0   -3320.2169   -3320.2169    35123.124    26.870734    26.338647    49.627243     1008 
     215            0    16.471529   0.29454398    20.412016    29.002572 -3.7408427e-08   -322.49819 -1.6159456e-08 2.2148699e-08            0   -3320.2169   -3320.2169    35123.124    26.870734    26.338647    49.627243     1008 
     216            0    16.471529   0.30191088    20.412016    29.002572 -2.3389613e-08   -322.49819 -4.4818783e-09 1.4013601e-08            0   -3320.2169   -3320.2169    35123.124    26.870734    26.338647    49.627243     1008 
     217            0    16.471529     0.312958    20.412016    29.002572 -1.8443354e-08   -322.49819 -3.3049561e-09 -2.2769894e-10            0   -3320.2169   -3320.2169    35123.124    26.870734    26.338647    49.627243     1008 
Loop time of 0.312976 on 1 procs for 42 steps with 1008 atoms

99.7% CPU use with 1 MPI tasks x no OpenMP threads

Minimization stats:
  Stopping criterion = force tolerance
  Energy initial, next-to-last, final = 
         -3320.2169101      -3320.2169101      -3320.2169101
  Force two-norm initial, final = 5.07707e-05 7.15262e-11
  Force max component initial, final = 3.96989e-06 5.25785e-12
  Final line search alpha, max atom move = 1 5.25785e-12
  Iterations, force evaluations = 42 84

MPI task timing breakdown:
Section |  min time  |  avg time  |  max time  |%varavg| %total
---------------------------------------------------------------
Pair    | 0.30849    | 0.30849    | 0.30849    |   0.0 | 98.57
Neigh   | 0          | 0          | 0          |   0.0 |  0.00
Comm    | 0.0010605  | 0.0010605  | 0.0010605  |   0.0 |  0.34
Output  | 0.0013187  | 0.0013187  | 0.0013187  |   0.0 |  0.42
Modify  | 0          | 0          | 0          |   0.0 |  0.00
Other   |            | 0.002111   |            |       |  0.67

Nlocal:    1008 ave 1008 max 1008 min
Histogram: 1 0 0 0 0 0 0 0 0 0
Nghost:    1517 ave 1517 max 1517 min
Histogram: 1 0 0 0 0 0 0 0 0 0
Neighs:    58680 ave 58680 max 58680 min
Histogram: 1 0 0 0 0 0 0 0 0 0

Total # of neighbors = 58680
Ave neighs/atom = 58.2143
Neighbor list builds = 0
Dangerous builds = 0
Reading restart file ...
  restart file = 13 Jan 2016, LAMMPS = 13 Jan 2016
  triclinic box = (0.148746 0.140321 -0.012538) to (27.0195 26.479 49.6147) with tilt (5.37636 0 0)
  1 by 1 by 1 MPI processor grid
  1008 atoms
Changing box ...
  triclinic box = (0.148746 0.140321 -0.012538) to (27.0195 26.479 49.6147) with tilt (5.37636 0 0)
Neighbor list info ...
  1 neighbor list requests
[...]
     211            0    16.257124   0.26477599     20.24042    28.530952 2.2112615e-07   -322.32527 -4.9844056e-08 1.4027366e-07            0   -3320.2169   -3320.2169    35123.159    26.870734    26.338673    49.627243     1008 
     212            0    16.257124   0.27213001     20.24042    28.530952 1.6059779e-08   -322.32527 -1.1221623e-07 2.1297173e-08            0   -3320.2169   -3320.2169    35123.159    26.870734    26.338673    49.627243     1008 
     213            0    16.257124   0.27948499     20.24042    28.530952 5.304372e-08   -322.32527 -5.9926844e-08 1.972484e-08            0   -3320.2169   -3320.2169    35123.159    26.870734    26.338673    49.627243     1008 
     214            0    16.257124     0.286834     20.24042    28.530952 2.9511106e-08   -322.32527 -1.4249462e-08 2.0757058e-08            0   -3320.2169   -3320.2169    35123.159    26.870734    26.338673    49.627243     1008 
     215            0    16.257124   0.29418898     20.24042    28.530952 1.630252e-08   -322.32527 -7.9237671e-09 1.3095135e-08            0   -3320.2169   -3320.2169    35123.159    26.870734    26.338673    49.627243     1008 
     216            0    16.257124   0.30515409     20.24042    28.530952 3.650391e-09   -322.32527 -3.5864994e-09 1.0798957e-09            0   -3320.2169   -3320.2169    35123.159    26.870734    26.338673    49.627243     1008 
Loop time of 0.305172 on 1 procs for 41 steps with 1008 atoms

99.6% CPU use with 1 MPI tasks x no OpenMP threads

Minimization stats:
  Stopping criterion = force tolerance
  Energy initial, next-to-last, final = 
         -3320.2169178      -3320.2169178      -3320.2169178
  Force two-norm initial, final = 1.85607e-05 3.4025e-11
  Force max component initial, final = 9.90101e-07 2.10784e-12
  Final line search alpha, max atom move = 1 2.10784e-12
  Iterations, force evaluations = 41 82

MPI task timing breakdown:
Section |  min time  |  avg time  |  max time  |%varavg| %total
---------------------------------------------------------------
Pair    | 0.30078    | 0.30078    | 0.30078    |   0.0 | 98.56
Neigh   | 0          | 0          | 0          |   0.0 |  0.00
Comm    | 0.001035   | 0.001035   | 0.001035   |   0.0 |  0.34
Output  | 0.001286   | 0.001286   | 0.001286   |   0.0 |  0.42
Modify  | 0          | 0          | 0          |   0.0 |  0.00
Other   |            | 0.002071   |            |       |  0.68

Nlocal:    1008 ave 1008 max 1008 min
Histogram: 1 0 0 0 0 0 0 0 0 0
Nghost:    1517 ave 1517 max 1517 min
Histogram: 1 0 0 0 0 0 0 0 0 0
Neighs:    58680 ave 58680 max 58680 min
Histogram: 1 0 0 0 0 0 0 0 0 0

Total # of neighbors = 58680
Ave neighs/atom = 58.2143
Neighbor list builds = 0
Dangerous builds = 0
Reading restart file ...
  restart file = 13 Jan 2016, LAMMPS = 13 Jan 2016
  triclinic box = (0.148746 0.140321 -0.012538) to (27.0195 26.479 49.6147) with tilt (5.37636 0 0)
  1 by 1 by 1 MPI processor grid
  1008 atoms
Changing box ...
  triclinic box = (0.148746 0.140321 -0.012538) to (27.0195 26.479 49.6147) with tilt (5.37639 0 0)
Neighbor list info ...
  1 neighbor list requests
  update every 1 steps, delay 0 steps, check yes
  max neighbors/atom: 2000, page size: 100000
  master list distance cutoff = 7.72488
  ghost atom cutoff = 7.72488
Setting up cg style minimization ...
  Unit style: metal
Memory usage per processor = 3.3861 Mbytes
Step Temp Press CPU Pxx Pyy Pzz Pxy Pxz Pyz KinEng PotEng TotEng Volume Lx Ly Lz Atoms 
     175            0    16.268296            0     20.25537    28.551081 -0.0015616546    -322.6479 -0.045503579  0.038122503            0   -3320.2169   -3320.2169    35123.159    26.870734    26.338673    49.627243     1008 
     176            0    16.269013 0.0073180199    20.257938    28.552832 -0.0037292956   -322.64464 -0.044545821  0.038094316            0   -3320.2169   -3320.2169    35123.159    26.870734    26.338673    49.627243     1008 
     177            0    16.268794  0.014640808    20.258297    28.553564 -0.0054793616   -322.64329 -0.043084815  0.037576104            0   -3320.2169   -3320.2169    35123.159    26.870734    26.338673    49.627243     1008 
     178            0    16.270199  0.021957874     20.25892    28.555006 -0.0033301313   -322.64254 -0.041035726  0.036550416            0   -3320.2169   -3320.2169    35123.159    26.870734    26.338673    49.627243     1008 
     179            0     16.27197   0.02927494    20.260041    28.557449 -0.0015813566   -322.64209 -0.038151866  0.034017968            0   -3320.2169   -3320.2169    35123.159    26.870734    26.338673    49.627243     1008 
     180            0    16.276127  0.036589861    20.262328    28.562262 0.0037916517   -322.64198 -0.032918547  0.026548502            0   -3320.2169   -3320.2169    35123.159    26.870734    26.338673    49.627243     1008 
     181            0    16.276499  0.043910027    20.261423    28.563799 0.0042759068   -322.64217 -0.025894622  0.017354766            0   -3320.2169   -3320.2169    35123.159    26.870734    26.338673    49.627243     1008 
     182            0    16.276446  0.051229954      20.2605    28.563836 0.0050011443   -322.64258  -0.01903958   0.01113861            0   -3320.2169   -3320.2169    35123.159    26.870734    26.338673    49.627243     1008 
     183            0    16.278699  0.058549881    20.262029    28.565336 0.0087329642   -322.64294 -0.013075604 0.0058202608            0   -3320.2169   -3320.2169    35123.159    26.870734    26.338673    49.627243     1008 
     184            0    16.276935  0.065869808    20.260806    28.563836 0.0061644823   -322.64305 -0.010069891 0.0036183825            0   -3320.2169   -3320.2169    35123.159    26.870734    26.338673    49.627243     1008 
     185            0    16.275271  0.073180914     20.25918    28.561876 0.0047565494   -322.64302 -0.0056242192 0.0023263061            0   -3320.2169   -3320.2169    35123.159    26.870734    26.338673    49.627243     1008 
     186            0    16.275255  0.080500841    20.259043     28.56178 0.0049412738   -322.64291 -0.0034270287 0.0017565956            0   -3320.2169   -3320.2169    35123.159    26.870734    26.338673    49.627243     1008 
     187            0    16.275337  0.087819815    20.259008    28.561999 0.0050030601   -322.64265 -0.0016531396 0.0010876782            0   -3320.2169   -3320.2169    35123.159    26.870734    26.338673    49.627243     1008 
     188            0    16.275015  0.095135927    20.258572    28.561865 0.0046077199   -322.64247 -0.00067014097 0.00075324727            0   -3320.2169   -3320.2169    35123.159    26.870734    26.338673    49.627243     1008 
     189            0    16.274503   0.10245681    20.257874     28.56154  0.004094329   -322.64244 5.0675848e-05 0.00066283633            0   -3320.2169   -3320.2169    35123.159    26.870734    26.338673    49.627243     1008 
     190            0    16.274193   0.10977983     20.25743    28.561338 0.0038102677   -322.64246 0.00028338883 0.00058388548            0   -3320.2169   -3320.2169    35123.159    26.870734    26.338673    49.627243     1008 
     191            0    16.273715   0.11709189    20.256958    28.561044 0.0031424637   -322.64245 0.00032763624 0.00044513127            0   -3320.2169   -3320.2169    35123.159    26.870734    26.338673    49.627243     1008 
     192            0     16.27328   0.12441182    20.256569    28.560767  0.002502364   -322.64245 0.00035291382 0.0003801088            0   -3320.2169   -3320.2169    35123.159    26.870734    26.338673    49.627243     1008 
     193            0    16.272717   0.13172603    20.256121    28.560404 0.0016274249   -322.64245 0.00031474156 0.00028683023            0   -3320.2169   -3320.2169    35123.159    26.870734    26.338673    49.627243     1008 
     194            0    16.272212     0.139045    20.255738    28.560052 0.00084437789   -322.64245 0.00027372562 0.0002264622            0   -3320.2169   -3320.2169    35123.159    26.870734    26.338673    49.627243     1008 
     195            0    16.272034   0.14636803    20.255619    28.559909 0.00057324094   -322.64245 0.00024646938 0.0002165183            0   -3320.2169   -3320.2169    35123.159    26.870734    26.338673    49.627243     1008 
     196            0     16.27181   0.15372682    20.255481    28.559706 0.00024196646   -322.64246 0.00020162164 0.00021538619            0   -3320.2169   -3320.2169    35123.159    26.870734    26.338673    49.627243     1008 
     197            0     16.27169   0.16104484    20.255402     28.55959 7.6762512e-05   -322.64247 0.00018750665 0.00022127468            0   -3320.2169   -3320.2169    35123.159    26.870734    26.338673    49.627243     1008 
     198            0     16.27165     0.168365    20.255381    28.559556 1.2907175e-05   -322.64247 0.00017369087 0.00021321108            0   -3320.2169   -3320.2169    35123.159    26.870734    26.338673    49.627243     1008 
     199            0     16.27161   0.17568493    20.255362    28.559522 -5.3329611e-05   -322.64247 0.00015514223 0.00019917454            0   -3320.2169   -3320.2169    35123.159    26.870734    26.338673    49.627243     1008 
     200            0    16.271605   0.18300891    20.255359    28.559518 -6.073739e-05   -322.64247 0.0001513137 0.00019387198            0   -3320.2169   -3320.2169    35123.159    26.870734    26.338673    49.627243     1008 
     201            0    16.271618   0.18669701    20.255369    28.559531 -4.4272509e-05   -322.64247 0.0001425585 0.00017073207            0   -3320.2169   -3320.2169    35123.159    26.870734    26.338673    49.627243     1008 
     202            0    16.271636    0.1940639    20.255383    28.559553 -2.8504073e-05   -322.64247 0.00011079728 0.00010722336            0   -3320.2169   -3320.2169    35123.159    26.870734    26.338673    49.627243     1008 
     203            0    16.271646   0.20137501    20.255392    28.559572 -2.610694e-05   -322.64247 7.2064264e-05 3.8255067e-05            0   -3320.2169   -3320.2169    35123.159    26.870734    26.338673    49.627243     1008 
     204            0    16.271648   0.20869398    20.255393    28.559575 -2.3994852e-05   -322.64247 6.1662046e-05 2.8428386e-05            0   -3320.2169   -3320.2169    35123.159    26.870734    26.338673    49.627243     1008 
     205            0    16.271659    0.2160089    20.255398    28.559582 -4.1436266e-06   -322.64247 4.5583484e-05 2.2582418e-05            0   -3320.2169   -3320.2169    35123.159    26.870734    26.338673    49.627243     1008 
     206            0    16.271656   0.22333097    20.255396    28.559579 -6.0751176e-06   -322.64247 2.9039571e-05 1.8916828e-05            0   -3320.2169   -3320.2169    35123.159    26.870734    26.338673    49.627243     1008 
     207            0     16.27165    0.2306478    20.255393    28.559573 -1.6690119e-05   -322.64247 1.5788529e-05 1.6359656e-05            0   -3320.2169   -3320.2169    35123.159    26.870734    26.338673    49.627243     1008 
     208            0    16.271659   0.23796296    20.255402    28.559578 -3.8671601e-06   -322.64247 1.2609594e-05 1.7488316e-05            0   -3320.2169   -3320.2169    35123.159    26.870734    26.338673    49.627243     1008 
     209            0    16.271661   0.24528193    20.255404    28.559579 -1.3504137e-06   -322.64247 1.1765783e-05 1.6925647e-05            0   -3320.2169   -3320.2169    35123.159    26.870734    26.338673    49.627243     1008 
     210            0    16.271661   0.25259781    20.255406     28.55958 -1.6962825e-06   -322.64247 1.0608047e-05 1.4841177e-05            0   -3320.2169   -3320.2169    35123.159    26.870734    26.338673    49.627243     1008 
     211            0    16.271662   0.25991702    20.255406     28.55958 -1.6225098e-06   -322.64247 1.0430962e-05 1.3905138e-05            0   -3320.2169   -3320.2169    35123.159    26.870734    26.338673    49.627243     1008 
     212            0    16.271662   0.26723695    20.255407    28.559581 -1.0971591e-06   -322.64247 1.0460589e-05 1.3218755e-05            0   -3320.2169   -3320.2169    35123.159    26.870734    26.338673    49.627243     1008 
     213            0    16.271663   0.27455497    20.255407    28.559581 -8.0718799e-07   -322.64247 1.017644e-05 1.2321236e-05            0   -3320.2169   -3320.2169    35123.159    26.870734    26.338673    49.627243     1008 
     214            0    16.271663    0.2818749    20.255407    28.559582 -1.4439217e-06   -322.64247 7.9917631e-06 8.9624876e-06            0   -3320.2169   -3320.2169    35123.159    26.870734    26.338673    49.627243     1008 
     215            0    16.271663   0.28918481    20.255407    28.559583 -1.2980125e-06   -322.64247 6.6387319e-06 6.8447074e-06            0   -3320.2169   -3320.2169    35123.159    26.870734    26.338673    49.627243     1008 
     216            0    16.271664   0.29650402    20.255408    28.559584 -2.540447e-08   -322.64247 5.5552084e-06 4.9795076e-06            0   -3320.2169   -3320.2169    35123.159    26.870734    26.338673    49.627243     1008 
     217            0    16.271665   0.30383492    20.255409    28.559585 1.8481946e-06   -322.64247 4.5473603e-06 3.3433426e-06            0   -3320.2169   -3320.2169    35123.159    26.870734    26.338673    49.627243     1008 
     218            0    16.271665   0.31115294    20.255409    28.559584 1.5618505e-06   -322.64247 3.7089422e-06 2.4005438e-06            0   -3320.2169   -3320.2169    35123.159    26.870734    26.338673    49.627243     1008 
     219            0    16.271664   0.31847382    20.255409    28.559584 8.8069961e-07   -322.64247 2.6907811e-06 1.6590943e-06            0   -3320.2169   -3320.2169    35123.159    26.870734    26.338673    49.627243     1008 
     220            0    16.271664   0.32579494    20.255409    28.559584 8.0280839e-07   -322.64247 1.6220633e-06 1.1395652e-06            0   -3320.2169   -3320.2169    35123.159    26.870734    26.338673    49.627243     1008 
     221            0    16.271665   0.33310795    20.255409    28.559584 7.7309159e-07   -322.64247 9.5516956e-07 1.0018097e-06            0   -3320.2169   -3320.2169    35123.159    26.870734    26.338673    49.627243     1008 
     222            0    16.271665   0.34042692    20.255409    28.559584 7.4866938e-07   -322.64247 7.1033061e-07 9.6464661e-07            0   -3320.2169   -3320.2169    35123.159    26.870734    26.338673    49.627243     1008 
     223            0    16.271665   0.34774399    20.255409    28.559584 6.6833289e-07   -322.64247 5.5071305e-07 9.270034e-07            0   -3320.2169   -3320.2169    35123.159    26.870734    26.338673    49.627243     1008 
     224            0    16.271664   0.35506392    20.255409    28.559584 6.0342576e-07   -322.64247 5.1327088e-07 8.9593736e-07            0   -3320.2169   -3320.2169    35123.159    26.870734    26.338673    49.627243     1008 
     225            0    16.271664   0.36238503    20.255409    28.559584 6.138868e-07   -322.64247 4.9590195e-07 8.536412e-07            0   -3320.2169   -3320.2169    35123.159    26.870734    26.338673    49.627243     1008 
     226            0    16.271664   0.36969995    20.255409    28.559584 5.9591966e-07   -322.64247 4.8338881e-07 8.1575769e-07            0   -3320.2169   -3320.2169    35123.159    26.870734    26.338673    49.627243     1008 
     227            0    16.271664   0.37701702    20.255409    28.559584 3.5089918e-07   -322.64247 4.2407427e-07 6.7353981e-07            0   -3320.2169   -3320.2169    35123.159    26.870734    26.338673    49.627243     1008 
     228            0    16.271664    0.3843329    20.255409    28.559584 1.443086e-07   -322.64247 3.8987724e-07 5.7292965e-07            0   -3320.2169   -3320.2169    35123.159    26.870734    26.338673    49.627243     1008 
     229            0    16.271664   0.39165401    20.255409    28.559584 -5.474798e-08   -322.64247 3.6585419e-07 4.5854395e-07            0   -3320.2169   -3320.2169    35123.159    26.870734    26.338673    49.627243     1008 
     230            0    16.271664   0.39897394    20.255408    28.559584 -1.6406005e-07   -322.64247 3.3636069e-07 3.7315188e-07            0   -3320.2169   -3320.2169    35123.159    26.870734    26.338673    49.627243     1008 
     231            0    16.271664   0.40628886    20.255408    28.559584 -2.4340332e-07   -322.64247 2.9473809e-07 3.0065918e-07            0   -3320.2169   -3320.2169    35123.159    26.870734    26.338673    49.627243     1008 
     232            0    16.271664   0.41360688    20.255408    28.559584 -2.8031263e-07   -322.64247 2.4366064e-07 2.6692711e-07            0   -3320.2169   -3320.2169    35123.159    26.870734    26.338673    49.627243     1008 
     233            0    16.271664   0.42092085    20.255408    28.559584 -3.189604e-07   -322.64247 1.4669818e-07 2.2700927e-07            0   -3320.2169   -3320.2169    35123.159    26.870734    26.338673    49.627243     1008 
     234            0    16.271664   0.42824793    20.255408    28.559584 -2.9496687e-07   -322.64247 9.1294807e-08 2.0611249e-07            0   -3320.2169   -3320.2169    35123.159    26.870734    26.338673    49.627243     1008 
     235            0    16.271664   0.43916297    20.255408    28.559584 -2.722226e-07   -322.64247 6.3924609e-08 1.8787041e-07            0   -3320.2169   -3320.2169    35123.159    26.870734    26.338673    49.627243     1008 
Loop time of 0.439181 on 1 procs for 60 steps with 1008 atoms

100.2% CPU use with 1 MPI tasks x no OpenMP threads

Minimization stats:
  Stopping criterion = force tolerance
  Energy initial, next-to-last, final = 
        -3320.21690366     -3320.21690366     -3320.21690366
  Force two-norm initial, final = 2.14367e-05 9.38471e-11
  Force max component initial, final = 1.40183e-06 5.50348e-12
  Final line search alpha, max atom move = 1 5.50348e-12
  Iterations, force evaluations = 60 119

MPI task timing breakdown:
Section |  min time  |  avg time  |  max time  |%varavg| %total
---------------------------------------------------------------
Pair    | 0.43282    | 0.43282    | 0.43282    |   0.0 | 98.55
Neigh   | 0          | 0          | 0          |   0.0 |  0.00
Comm    | 0.001487   | 0.001487   | 0.001487   |   0.0 |  0.34
Output  | 0.001899   | 0.001899   | 0.001899   |   0.0 |  0.43
Modify  | 0          | 0          | 0          |   0.0 |  0.00
Other   |            | 0.002975   |            |       |  0.68

Nlocal:    1008 ave 1008 max 1008 min
Histogram: 1 0 0 0 0 0 0 0 0 0
Nghost:    1517 ave 1517 max 1517 min
Histogram: 1 0 0 0 0 0 0 0 0 0
Neighs:    58680 ave 58680 max 58680 min
Histogram: 1 0 0 0 0 0 0 0 0 0

Total # of neighbors = 58680
Ave neighs/atom = 58.2143
Neighbor list builds = 0
Dangerous builds = 0
Elastic Constant C11all = 45.0747124752349 GPa
Elastic Constant C22all = 45.73027711851 GPa
Elastic Constant C33all = 0.000123410978517313 GPa
Elastic Constant C12all = 16.5566303397825 GPa
Elastic Constant C13all = 0.00121924053405564 GPa
Elastic Constant C23all = 0.00161347212900864 GPa
Elastic Constant C44all = -6.42148734186776e-08 GPa
Elastic Constant C55all = 1.21594894153532e-07 GPa
Elastic Constant C66all = 15.8603371235 GPa
Elastic Constant C14all = 3.10307655126962e-07 GPa
Elastic Constant C15all = -1.85645262718026e-07 GPa
Elastic Constant C16all = -2.40043751133498 GPa
Elastic Constant C24all = 5.41484951099847e-07 GPa
Elastic Constant C25all = -5.53837480765651e-07 GPa
Elastic Constant C26all = -1.43159294208743 GPa
Elastic Constant C34all = -0.00114755084683793 GPa
Elastic Constant C35all = -0.00139582748649047 GPa
Elastic Constant C36all = -0.0161768458752221 GPa
Elastic Constant C45all = -4.9772552301874e-08 GPa
Elastic Constant C46all = -4.6555375661228e-06 GPa
Elastic Constant C56all = -1.84765252697616e-06 GPa
Total wall time: 0:00:05
