 vasp.5.4.1 24Jun15 (build Feb  4 2017 17:53:50) complex                         
 executed on           IFC91_ompi date 2020.03.17  07:02:12
 running on   16 total cores
 distrk:  each k-point on   16 cores,    1 groups
 distr:  one band on NCORES_PER_BAND=   4 cores,    4 groups


--------------------------------------------------------------------------------------------------------


 INCAR:
 POTCAR:    PAW_PBE Co 02Aug2007                  
 POTCAR:    PAW_PBE Se 06Sep2000                  

 ----------------------------------------------------------------------------- 
|                                                                             |
|  ADVICE TO THIS USER RUNNING 'VASP/VAMP'   (HEAR YOUR MASTER'S VOICE ...):  |
|                                                                             |
|      You have switched on vdW-DFT.                                          |
|      This routine was written and supplied by Jiri Klimes.                  |
|      We recommed that you carefully read and cite the following             |
|      publication                                                            |
|      J. Klimes, D.R. Bowler, A. Michelides                                  |
|        J. Phys.: Cond Matt. 22 022201 (2010)                                |
|      J. Klimes, D.R. Bowler, A. Michelides                                  |
|        Phys. Rev. B. 83, 195131 (2011)                                      |
|      and references therein.                                                |
|                                                                             |
 ----------------------------------------------------------------------------- 

 POTCAR:    PAW_PBE Co 02Aug2007                  
   VRHFIN =Co: d8 s1                                                            
   LEXCH  = PE                                                                  
   EATOM  =   813.3670 eV,   59.7808 Ry                                         
                                                                                
   TITEL  = PAW_PBE Co 02Aug2007                                                
   LULTRA =        F    use ultrasoft PP ?                                      
   IUNSCR =        1    unscreen: 0-lin 1-nonlin 2-no                           
   RPACOR =    2.000    partial core radius                                     
   POMASS =   58.933; ZVAL   =    9.000    mass and valenz                      
   RCORE  =    2.300    outmost cutoff radius                                   
   RWIGS  =    2.460; RWIGS  =    1.302    wigner-seitz radius (au A)           
   ENMAX  =  267.968; ENMIN  =  200.976 eV                                      
   RCLOC  =    1.203    cutoff for local pot                                    
   LCOR   =        T    correct aug charges                                     
   LPAW   =        T    paw PP                                                  
   EAUG   =  477.818                                                            
   DEXC   =    0.000                                                            
   RMAX   =    2.360    core radius for proj-oper                               
   RAUG   =    1.300    factor for augmentation sphere                          
   RDEP   =    2.393    radius for radial grids                                 
   RDEPT  =    1.864    core radius for aug-charge                              
                                                                                
   Atomic configuration                                                         
    9 entries                                                                   
     n  l   j            E        occ.                                          
     1  0  0.50     -7587.6674   2.0000                                         
     2  0  0.50      -893.6084   2.0000                                         
     2  1  1.50      -764.5805   6.0000                                         
     3  0  0.50       -97.5973   2.0000                                         
     3  1  1.50       -60.9648   6.0000                                         
     3  2  2.50        -4.2382   8.0000                                         
     4  0  0.50        -4.3746   1.0000                                         
     4  1  1.50        -4.0817   0.0000                                         
     4  3  2.50        -1.3606   0.0000                                         
   Description                                                                  
     l       E           TYP  RCUT    TYP  RCUT                                 
     2     -4.2382362     23  2.300                                             
     2     -5.5988188     23  2.300                                             
     0     -4.3745797     23  2.300                                             
     0      5.7660125     23  2.300                                             
     1     -2.7211652     23  2.300                                             
     1     16.9860234     23  2.300                                             
  local pseudopotential read in
  partial core-charges read in
  partial kinetic energy density read in
  atomic valenz-charges read in
  non local Contribution for L=           2  read in
    real space projection operators read in
  non local Contribution for L=           2  read in
    real space projection operators read in
  non local Contribution for L=           0  read in
    real space projection operators read in
  non local Contribution for L=           0  read in
    real space projection operators read in
  non local Contribution for L=           1  read in
    real space projection operators read in
  non local Contribution for L=           1  read in
    real space projection operators read in
    PAW grid and wavefunctions read in

   number of l-projection  operators is LMAX  =           6
   number of lm-projection operators is LMMAX =          18

 POTCAR:    PAW_PBE Se 06Sep2000                  
   VRHFIN =Se: s2p4                                                             
   LEXCH  = PE                                                                  
   EATOM  =   257.1286 eV,   18.8984 Ry                                         
                                                                                
   TITEL  = PAW_PBE Se 06Sep2000                                                
   LULTRA =        F    use ultrasoft PP ?                                      
   IUNSCR =        1    unscreen: 0-lin 1-nonlin 2-no                           
   RPACOR =    1.900    partial core radius                                     
   POMASS =   78.960; ZVAL   =    6.000    mass and valenz                      
   RCORE  =    2.100    outmost cutoff radius                                   
   RWIGS  =    2.200; RWIGS  =    1.164    wigner-seitz radius (au A)           
   ENMAX  =  211.555; ENMIN  =  158.666 eV                                      
   ICORE  =        3    local potential                                         
   LCOR   =        T    correct aug charges                                     
   LPAW   =        T    paw PP                                                  
   EAUG   =  446.842                                                            
   DEXC   =    0.000                                                            
   RMAX   =    2.147    core radius for proj-oper                               
   RAUG   =    1.300    factor for augmentation sphere                          
   RDEP   =    2.177    radius for radial grids                                 
   RDEPT  =    1.928    core radius for aug-charge                              
                                                                                
   Atomic configuration                                                         
   10 entries                                                                   
     n  l   j            E        occ.                                          
     1  0  0.50    -12503.4787   2.0000                                         
     2  0  0.50     -1606.9547   2.0000                                         
     2  1  1.50     -1413.3140   6.0000                                         
     3  0  0.50      -213.4885   2.0000                                         
     3  1  1.50      -152.9538   6.0000                                         
     3  2  2.50       -53.1221  10.0000                                         
     4  0  0.50       -17.2865   2.0000                                         
     4  1  0.50        -6.5110   4.0000                                         
     4  2  2.50        -6.8029   0.0000                                         
     4  3  2.50        -6.8029   0.0000                                         
   Description                                                                  
     l       E           TYP  RCUT    TYP  RCUT                                 
     0    -17.2865377     23  2.100                                             
     0    -15.3094411     23  2.100                                             
     1     -6.5110275     23  2.100                                             
     1     -0.0695192     23  2.100                                             
     2     -6.8029130     23  2.100                                             
     3     -1.3605826      7  2.100                                             
  local pseudopotential read in
  partial core-charges read in
  partial kinetic energy density read in
  atomic valenz-charges read in
  non local Contribution for L=           0  read in
    real space projection operators read in
  non local Contribution for L=           0  read in
    real space projection operators read in
  non local Contribution for L=           1  read in
    real space projection operators read in
  non local Contribution for L=           1  read in
    real space projection operators read in
  non local Contribution for L=           2  read in
    real space projection operators read in
    PAW grid and wavefunctions read in

   number of l-projection  operators is LMAX  =           5
   number of lm-projection operators is LMMAX =          13


 ----------------------------------------------------------------------------- 
|                                                                             |
|  ADVICE TO THIS USER RUNNING 'VASP/VAMP'   (HEAR YOUR MASTER'S VOICE ...):  |
|                                                                             |
|      You enforced a specific xc-type in the INCAR file,                     |
|      a different type was found on the POTCAR file                          |
|          I HOPE YOU KNOW, WHAT YOU ARE  DOING                               |
|                                                                             |
 ----------------------------------------------------------------------------- 

  PAW_PBE Co 02Aug2007                  :
 energy of atom  1       EATOM= -813.3670
 kinetic energy error for atom=    0.0005 (will be added to EATOM!!)
  PAW_PBE Se 06Sep2000                  :
 energy of atom  2       EATOM= -257.1286
 kinetic energy error for atom=    0.0003 (will be added to EATOM!!)


 POSCAR: JVASP-12148_mp-604908                   
  positions in direct lattice
  No initial velocities read in
 exchange correlation table for  LEXCH =       42
   RHO(1)=    0.500       N(1)  =     2000
   RHO(2)=  100.500       N(2)  =     4000



--------------------------------------------------------------------------------------------------------


 ion  position               nearest neighbor table
   1  0.000  0.000  0.000-   3 2.32   4 2.32   4 2.32   3 2.32   2 2.58   2 2.58   2 2.58   2 2.58

   2  0.500  0.500  0.000-   3 2.32   4 2.32   3 2.32   4 2.32   1 2.58   1 2.58   1 2.58   1 2.58

   3  0.500  0.000  0.736-   1 2.32   2 2.32   2 2.32   1 2.32
   4  0.000  0.500  0.264-   1 2.32   2 2.32   1 2.32   2 2.32

  LATTYP: Found a simple tetragonal cell.
 ALAT       =     3.6418350000
 C/A-ratio  =     1.4942942226
  
  Lattice vectors:
  
 A1 = (   3.6418350000,   0.0000000000,   0.0000000000)
 A2 = (   0.0000000000,   3.6418350000,   0.0000000000)
 A3 = (   0.0000000000,   0.0000000000,   5.4419730000)


Analysis of symmetry for initial positions (statically):
=====================================================================
 Subroutine PRICEL returns:
 Original cell was already a primitive cell.
 

 Routine SETGRP: Setting up the symmetry group for a 
 simple tetragonal supercell.


 Subroutine GETGRP returns: Found 16 space group operations
 (whereof  8 operations were pure point group operations)
 out of a pool of 16 trial point group operations.


The static configuration has the point symmetry D_2d.
 The point group associated with its full space group is D_4h.


Analysis of symmetry for dynamics (positions and initial velocities):
=====================================================================
 Subroutine PRICEL returns:
 Original cell was already a primitive cell.
 

 Routine SETGRP: Setting up the symmetry group for a 
 simple tetragonal supercell.


 Subroutine GETGRP returns: Found 16 space group operations
 (whereof  8 operations were pure point group operations)
 out of a pool of 16 trial point group operations.


The dynamic configuration has the point symmetry D_2d.
 The point group associated with its full space group is D_4h.


Analysis of magnetic symmetry:
=====================================================================
 Subroutine PRICEL returns:
 Original cell was already a primitive cell.
 

 Subroutine MAGSYM returns: Found 16 space group operations
 (whereof  8 operations were pure point group operations)
 out of a pool of 16 trial space group operations
 (whereof  8 operations were pure point group operations)
 and found also     1 'primitive' translations


The magnetic configuration has the point symmetry D_2d.
 The point group associated with its full space group is D_4h.


 KPOINTS: Automatic kpoint scheme                 

Automatic generation of k-mesh.
Space group operators:
 irot       det(A)        alpha          n_x          n_y          n_z        tau_x        tau_y        tau_z
    1     1.000000     0.000000     1.000000     0.000000     0.000000     0.000000     0.000000     0.000000
    2    -1.000000    90.000000     0.000000     0.000000    -1.000000     0.000000     0.000000     0.000000
    3     1.000000   180.000000     0.000000     0.000000     1.000000     0.000000     0.000000     0.000000
    4    -1.000000    90.000000     0.000000     0.000000     1.000000     0.000000     0.000000     0.000000
    5    -1.000000   180.000000     0.000000     1.000000     0.000000     0.000000     0.000000     0.000000
    6     1.000000   180.000000     0.707107     0.707107     0.000000     0.000000     0.000000     0.000000
    7    -1.000000   180.000000     1.000000     0.000000     0.000000     0.000000     0.000000     0.000000
    8     1.000000   180.000000     0.707107    -0.707107     0.000000     0.000000     0.000000     0.000000
    9    -1.000000     0.000000     1.000000     0.000000     0.000000     0.500000     0.500000     0.000000
   10     1.000000    90.000000     0.000000     0.000000    -1.000000     0.500000     0.500000     0.000000
   11    -1.000000   180.000000     0.000000     0.000000     1.000000     0.500000     0.500000     0.000000
   12     1.000000    90.000000     0.000000     0.000000     1.000000     0.500000     0.500000     0.000000
   13     1.000000   180.000000     0.000000     1.000000     0.000000     0.500000     0.500000     0.000000
   14    -1.000000   180.000000     0.707107     0.707107     0.000000     0.500000     0.500000     0.000000
   15     1.000000   180.000000     1.000000     0.000000     0.000000     0.500000     0.500000     0.000000
   16    -1.000000   180.000000     0.707107    -0.707107     0.000000     0.500000     0.500000     0.000000
 
 Subroutine IBZKPT returns following result:
 ===========================================
 
 Found    385 irreducible k-points:
 
 Following reciprocal coordinates:
            Coordinates               Weight
  0.000000  0.000000  0.000000      1.000000
  0.055556  0.000000  0.000000      4.000000
  0.111111  0.000000  0.000000      4.000000
  0.166667  0.000000  0.000000      4.000000
  0.222222  0.000000  0.000000      4.000000
  0.277778  0.000000  0.000000      4.000000
  0.333333  0.000000  0.000000      4.000000
  0.388889  0.000000  0.000000      4.000000
  0.444444  0.000000  0.000000      4.000000
  0.500000  0.000000  0.000000      2.000000
  0.055556  0.055556  0.000000      4.000000
  0.111111  0.055556  0.000000      8.000000
  0.166667  0.055556  0.000000      8.000000
  0.222222  0.055556  0.000000      8.000000
  0.277778  0.055556  0.000000      8.000000
  0.333333  0.055556  0.000000      8.000000
  0.388889  0.055556  0.000000      8.000000
  0.444444  0.055556  0.000000      8.000000
  0.500000  0.055556  0.000000      4.000000
  0.111111  0.111111  0.000000      4.000000
  0.166667  0.111111  0.000000      8.000000
  0.222222  0.111111  0.000000      8.000000
  0.277778  0.111111  0.000000      8.000000
  0.333333  0.111111  0.000000      8.000000
  0.388889  0.111111  0.000000      8.000000
  0.444444  0.111111  0.000000      8.000000
  0.500000  0.111111  0.000000      4.000000
  0.166667  0.166667  0.000000      4.000000
  0.222222  0.166667  0.000000      8.000000
  0.277778  0.166667  0.000000      8.000000
  0.333333  0.166667  0.000000      8.000000
  0.388889  0.166667  0.000000      8.000000
  0.444444  0.166667  0.000000      8.000000
  0.500000  0.166667  0.000000      4.000000
  0.222222  0.222222  0.000000      4.000000
  0.277778  0.222222  0.000000      8.000000
  0.333333  0.222222  0.000000      8.000000
  0.388889  0.222222  0.000000      8.000000
  0.444444  0.222222  0.000000      8.000000
  0.500000  0.222222  0.000000      4.000000
  0.277778  0.277778  0.000000      4.000000
  0.333333  0.277778  0.000000      8.000000
  0.388889  0.277778  0.000000      8.000000
  0.444444  0.277778  0.000000      8.000000
  0.500000  0.277778  0.000000      4.000000
  0.333333  0.333333  0.000000      4.000000
  0.388889  0.333333  0.000000      8.000000
  0.444444  0.333333  0.000000      8.000000
  0.500000  0.333333  0.000000      4.000000
  0.388889  0.388889  0.000000      4.000000
  0.444444  0.388889  0.000000      8.000000
  0.500000  0.388889  0.000000      4.000000
  0.444444  0.444444  0.000000      4.000000
  0.500000  0.444444  0.000000      4.000000
  0.500000  0.500000  0.000000      1.000000
  0.000000  0.000000  0.083333      2.000000
  0.055556  0.000000  0.083333      8.000000
  0.111111  0.000000  0.083333      8.000000
  0.166667  0.000000  0.083333      8.000000
  0.222222  0.000000  0.083333      8.000000
  0.277778  0.000000  0.083333      8.000000
  0.333333  0.000000  0.083333      8.000000
  0.388889  0.000000  0.083333      8.000000
  0.444444  0.000000  0.083333      8.000000
  0.500000  0.000000  0.083333      4.000000
  0.055556  0.055556  0.083333      8.000000
  0.111111  0.055556  0.083333     16.000000
  0.166667  0.055556  0.083333     16.000000
  0.222222  0.055556  0.083333     16.000000
  0.277778  0.055556  0.083333     16.000000
  0.333333  0.055556  0.083333     16.000000
  0.388889  0.055556  0.083333     16.000000
  0.444444  0.055556  0.083333     16.000000
  0.500000  0.055556  0.083333      8.000000
  0.111111  0.111111  0.083333      8.000000
  0.166667  0.111111  0.083333     16.000000
  0.222222  0.111111  0.083333     16.000000
  0.277778  0.111111  0.083333     16.000000
  0.333333  0.111111  0.083333     16.000000
  0.388889  0.111111  0.083333     16.000000
  0.444444  0.111111  0.083333     16.000000
  0.500000  0.111111  0.083333      8.000000
  0.166667  0.166667  0.083333      8.000000
  0.222222  0.166667  0.083333     16.000000
  0.277778  0.166667  0.083333     16.000000
  0.333333  0.166667  0.083333     16.000000
  0.388889  0.166667  0.083333     16.000000
  0.444444  0.166667  0.083333     16.000000
  0.500000  0.166667  0.083333      8.000000
  0.222222  0.222222  0.083333      8.000000
  0.277778  0.222222  0.083333     16.000000
  0.333333  0.222222  0.083333     16.000000
  0.388889  0.222222  0.083333     16.000000
  0.444444  0.222222  0.083333     16.000000
  0.500000  0.222222  0.083333      8.000000
  0.277778  0.277778  0.083333      8.000000
  0.333333  0.277778  0.083333     16.000000
  0.388889  0.277778  0.083333     16.000000
  0.444444  0.277778  0.083333     16.000000
  0.500000  0.277778  0.083333      8.000000
  0.333333  0.333333  0.083333      8.000000
  0.388889  0.333333  0.083333     16.000000
  0.444444  0.333333  0.083333     16.000000
  0.500000  0.333333  0.083333      8.000000
  0.388889  0.388889  0.083333      8.000000
  0.444444  0.388889  0.083333     16.000000
  0.500000  0.388889  0.083333      8.000000
  0.444444  0.444444  0.083333      8.000000
  0.500000  0.444444  0.083333      8.000000
  0.500000  0.500000  0.083333      2.000000
  0.000000  0.000000  0.166667      2.000000
  0.055556  0.000000  0.166667      8.000000
  0.111111  0.000000  0.166667      8.000000
  0.166667  0.000000  0.166667      8.000000
  0.222222  0.000000  0.166667      8.000000
  0.277778  0.000000  0.166667      8.000000
  0.333333  0.000000  0.166667      8.000000
  0.388889  0.000000  0.166667      8.000000
  0.444444  0.000000  0.166667      8.000000
  0.500000  0.000000  0.166667      4.000000
  0.055556  0.055556  0.166667      8.000000
  0.111111  0.055556  0.166667     16.000000
  0.166667  0.055556  0.166667     16.000000
  0.222222  0.055556  0.166667     16.000000
  0.277778  0.055556  0.166667     16.000000
  0.333333  0.055556  0.166667     16.000000
  0.388889  0.055556  0.166667     16.000000
  0.444444  0.055556  0.166667     16.000000
  0.500000  0.055556  0.166667      8.000000
  0.111111  0.111111  0.166667      8.000000
  0.166667  0.111111  0.166667     16.000000
  0.222222  0.111111  0.166667     16.000000
  0.277778  0.111111  0.166667     16.000000
  0.333333  0.111111  0.166667     16.000000
  0.388889  0.111111  0.166667     16.000000
  0.444444  0.111111  0.166667     16.000000
  0.500000  0.111111  0.166667      8.000000
  0.166667  0.166667  0.166667      8.000000
  0.222222  0.166667  0.166667     16.000000
  0.277778  0.166667  0.166667     16.000000
  0.333333  0.166667  0.166667     16.000000
  0.388889  0.166667  0.166667     16.000000
  0.444444  0.166667  0.166667     16.000000
  0.500000  0.166667  0.166667      8.000000
  0.222222  0.222222  0.166667      8.000000
  0.277778  0.222222  0.166667     16.000000
  0.333333  0.222222  0.166667     16.000000
  0.388889  0.222222  0.166667     16.000000
  0.444444  0.222222  0.166667     16.000000
  0.500000  0.222222  0.166667      8.000000
  0.277778  0.277778  0.166667      8.000000
  0.333333  0.277778  0.166667     16.000000
  0.388889  0.277778  0.166667     16.000000
  0.444444  0.277778  0.166667     16.000000
  0.500000  0.277778  0.166667      8.000000
  0.333333  0.333333  0.166667      8.000000
  0.388889  0.333333  0.166667     16.000000
  0.444444  0.333333  0.166667     16.000000
  0.500000  0.333333  0.166667      8.000000
  0.388889  0.388889  0.166667      8.000000
  0.444444  0.388889  0.166667     16.000000
  0.500000  0.388889  0.166667      8.000000
  0.444444  0.444444  0.166667      8.000000
  0.500000  0.444444  0.166667      8.000000
  0.500000  0.500000  0.166667      2.000000
  0.000000  0.000000  0.250000      2.000000
  0.055556  0.000000  0.250000      8.000000
  0.111111  0.000000  0.250000      8.000000
  0.166667  0.000000  0.250000      8.000000
  0.222222  0.000000  0.250000      8.000000
  0.277778  0.000000  0.250000      8.000000
  0.333333  0.000000  0.250000      8.000000
  0.388889  0.000000  0.250000      8.000000
  0.444444  0.000000  0.250000      8.000000
  0.500000  0.000000  0.250000      4.000000
  0.055556  0.055556  0.250000      8.000000
  0.111111  0.055556  0.250000     16.000000
  0.166667  0.055556  0.250000     16.000000
  0.222222  0.055556  0.250000     16.000000
  0.277778  0.055556  0.250000     16.000000
  0.333333  0.055556  0.250000     16.000000
  0.388889  0.055556  0.250000     16.000000
  0.444444  0.055556  0.250000     16.000000
  0.500000  0.055556  0.250000      8.000000
  0.111111  0.111111  0.250000      8.000000
  0.166667  0.111111  0.250000     16.000000
  0.222222  0.111111  0.250000     16.000000
  0.277778  0.111111  0.250000     16.000000
  0.333333  0.111111  0.250000     16.000000
  0.388889  0.111111  0.250000     16.000000
  0.444444  0.111111  0.250000     16.000000
  0.500000  0.111111  0.250000      8.000000
  0.166667  0.166667  0.250000      8.000000
  0.222222  0.166667  0.250000     16.000000
  0.277778  0.166667  0.250000     16.000000
  0.333333  0.166667  0.250000     16.000000
  0.388889  0.166667  0.250000     16.000000
  0.444444  0.166667  0.250000     16.000000
  0.500000  0.166667  0.250000      8.000000
  0.222222  0.222222  0.250000      8.000000
  0.277778  0.222222  0.250000     16.000000
  0.333333  0.222222  0.250000     16.000000
  0.388889  0.222222  0.250000     16.000000
  0.444444  0.222222  0.250000     16.000000
  0.500000  0.222222  0.250000      8.000000
  0.277778  0.277778  0.250000      8.000000
  0.333333  0.277778  0.250000     16.000000
  0.388889  0.277778  0.250000     16.000000
  0.444444  0.277778  0.250000     16.000000
  0.500000  0.277778  0.250000      8.000000
  0.333333  0.333333  0.250000      8.000000
  0.388889  0.333333  0.250000     16.000000
  0.444444  0.333333  0.250000     16.000000
  0.500000  0.333333  0.250000      8.000000
  0.388889  0.388889  0.250000      8.000000
  0.444444  0.388889  0.250000     16.000000
  0.500000  0.388889  0.250000      8.000000
  0.444444  0.444444  0.250000      8.000000
  0.500000  0.444444  0.250000      8.000000
  0.500000  0.500000  0.250000      2.000000
  0.000000  0.000000  0.333333      2.000000
  0.055556  0.000000  0.333333      8.000000
  0.111111  0.000000  0.333333      8.000000
  0.166667  0.000000  0.333333      8.000000
  0.222222  0.000000  0.333333      8.000000
  0.277778  0.000000  0.333333      8.000000
  0.333333  0.000000  0.333333      8.000000
  0.388889  0.000000  0.333333      8.000000
  0.444444  0.000000  0.333333      8.000000
  0.500000  0.000000  0.333333      4.000000
  0.055556  0.055556  0.333333      8.000000
  0.111111  0.055556  0.333333     16.000000
  0.166667  0.055556  0.333333     16.000000
  0.222222  0.055556  0.333333     16.000000
  0.277778  0.055556  0.333333     16.000000
  0.333333  0.055556  0.333333     16.000000
  0.388889  0.055556  0.333333     16.000000
  0.444444  0.055556  0.333333     16.000000
  0.500000  0.055556  0.333333      8.000000
  0.111111  0.111111  0.333333      8.000000
  0.166667  0.111111  0.333333     16.000000
  0.222222  0.111111  0.333333     16.000000
  0.277778  0.111111  0.333333     16.000000
  0.333333  0.111111  0.333333     16.000000
  0.388889  0.111111  0.333333     16.000000
  0.444444  0.111111  0.333333     16.000000
  0.500000  0.111111  0.333333      8.000000
  0.166667  0.166667  0.333333      8.000000
  0.222222  0.166667  0.333333     16.000000
  0.277778  0.166667  0.333333     16.000000
  0.333333  0.166667  0.333333     16.000000
  0.388889  0.166667  0.333333     16.000000
  0.444444  0.166667  0.333333     16.000000
  0.500000  0.166667  0.333333      8.000000
  0.222222  0.222222  0.333333      8.000000
  0.277778  0.222222  0.333333     16.000000
  0.333333  0.222222  0.333333     16.000000
  0.388889  0.222222  0.333333     16.000000
  0.444444  0.222222  0.333333     16.000000
  0.500000  0.222222  0.333333      8.000000
  0.277778  0.277778  0.333333      8.000000
  0.333333  0.277778  0.333333     16.000000
  0.388889  0.277778  0.333333     16.000000
  0.444444  0.277778  0.333333     16.000000
  0.500000  0.277778  0.333333      8.000000
  0.333333  0.333333  0.333333      8.000000
  0.388889  0.333333  0.333333     16.000000
  0.444444  0.333333  0.333333     16.000000
  0.500000  0.333333  0.333333      8.000000
  0.388889  0.388889  0.333333      8.000000
  0.444444  0.388889  0.333333     16.000000
  0.500000  0.388889  0.333333      8.000000
  0.444444  0.444444  0.333333      8.000000
  0.500000  0.444444  0.333333      8.000000
  0.500000  0.500000  0.333333      2.000000
  0.000000  0.000000  0.416667      2.000000
  0.055556  0.000000  0.416667      8.000000
  0.111111  0.000000  0.416667      8.000000
  0.166667  0.000000  0.416667      8.000000
  0.222222  0.000000  0.416667      8.000000
  0.277778  0.000000  0.416667      8.000000
  0.333333  0.000000  0.416667      8.000000
  0.388889  0.000000  0.416667      8.000000
  0.444444  0.000000  0.416667      8.000000
  0.500000  0.000000  0.416667      4.000000
  0.055556  0.055556  0.416667      8.000000
  0.111111  0.055556  0.416667     16.000000
  0.166667  0.055556  0.416667     16.000000
  0.222222  0.055556  0.416667     16.000000
  0.277778  0.055556  0.416667     16.000000
  0.333333  0.055556  0.416667     16.000000
  0.388889  0.055556  0.416667     16.000000
  0.444444  0.055556  0.416667     16.000000
  0.500000  0.055556  0.416667      8.000000
  0.111111  0.111111  0.416667      8.000000
  0.166667  0.111111  0.416667     16.000000
  0.222222  0.111111  0.416667     16.000000
  0.277778  0.111111  0.416667     16.000000
  0.333333  0.111111  0.416667     16.000000
  0.388889  0.111111  0.416667     16.000000
  0.444444  0.111111  0.416667     16.000000
  0.500000  0.111111  0.416667      8.000000
  0.166667  0.166667  0.416667      8.000000
  0.222222  0.166667  0.416667     16.000000
  0.277778  0.166667  0.416667     16.000000
  0.333333  0.166667  0.416667     16.000000
  0.388889  0.166667  0.416667     16.000000
  0.444444  0.166667  0.416667     16.000000
  0.500000  0.166667  0.416667      8.000000
  0.222222  0.222222  0.416667      8.000000
  0.277778  0.222222  0.416667     16.000000
  0.333333  0.222222  0.416667     16.000000
  0.388889  0.222222  0.416667     16.000000
  0.444444  0.222222  0.416667     16.000000
  0.500000  0.222222  0.416667      8.000000
  0.277778  0.277778  0.416667      8.000000
  0.333333  0.277778  0.416667     16.000000
  0.388889  0.277778  0.416667     16.000000
  0.444444  0.277778  0.416667     16.000000
  0.500000  0.277778  0.416667      8.000000
  0.333333  0.333333  0.416667      8.000000
  0.388889  0.333333  0.416667     16.000000
  0.444444  0.333333  0.416667     16.000000
  0.500000  0.333333  0.416667      8.000000
  0.388889  0.388889  0.416667      8.000000
  0.444444  0.388889  0.416667     16.000000
  0.500000  0.388889  0.416667      8.000000
  0.444444  0.444444  0.416667      8.000000
  0.500000  0.444444  0.416667      8.000000
  0.500000  0.500000  0.416667      2.000000
  0.000000  0.000000  0.500000      1.000000
  0.055556  0.000000  0.500000      4.000000
  0.111111  0.000000  0.500000      4.000000
  0.166667  0.000000  0.500000      4.000000
  0.222222  0.000000  0.500000      4.000000
  0.277778  0.000000  0.500000      4.000000
  0.333333  0.000000  0.500000      4.000000
  0.388889  0.000000  0.500000      4.000000
  0.444444  0.000000  0.500000      4.000000
  0.500000  0.000000  0.500000      2.000000
  0.055556  0.055556  0.500000      4.000000
  0.111111  0.055556  0.500000      8.000000
  0.166667  0.055556  0.500000      8.000000
  0.222222  0.055556  0.500000      8.000000
  0.277778  0.055556  0.500000      8.000000
  0.333333  0.055556  0.500000      8.000000
  0.388889  0.055556  0.500000      8.000000
  0.444444  0.055556  0.500000      8.000000
  0.500000  0.055556  0.500000      4.000000
  0.111111  0.111111  0.500000      4.000000
  0.166667  0.111111  0.500000      8.000000
  0.222222  0.111111  0.500000      8.000000
  0.277778  0.111111  0.500000      8.000000
  0.333333  0.111111  0.500000      8.000000
  0.388889  0.111111  0.500000      8.000000
  0.444444  0.111111  0.500000      8.000000
  0.500000  0.111111  0.500000      4.000000
  0.166667  0.166667  0.500000      4.000000
  0.222222  0.166667  0.500000      8.000000
  0.277778  0.166667  0.500000      8.000000
  0.333333  0.166667  0.500000      8.000000
  0.388889  0.166667  0.500000      8.000000
  0.444444  0.166667  0.500000      8.000000
  0.500000  0.166667  0.500000      4.000000
  0.222222  0.222222  0.500000      4.000000
  0.277778  0.222222  0.500000      8.000000
  0.333333  0.222222  0.500000      8.000000
  0.388889  0.222222  0.500000      8.000000
  0.444444  0.222222  0.500000      8.000000
  0.500000  0.222222  0.500000      4.000000
  0.277778  0.277778  0.500000      4.000000
  0.333333  0.277778  0.500000      8.000000
  0.388889  0.277778  0.500000      8.000000
  0.444444  0.277778  0.500000      8.000000
  0.500000  0.277778  0.500000      4.000000
  0.333333  0.333333  0.500000      4.000000
  0.388889  0.333333  0.500000      8.000000
  0.444444  0.333333  0.500000      8.000000
  0.500000  0.333333  0.500000      4.000000
  0.388889  0.388889  0.500000      4.000000
  0.444444  0.388889  0.500000      8.000000
  0.500000  0.388889  0.500000      4.000000
  0.444444  0.444444  0.500000      4.000000
  0.500000  0.444444  0.500000      4.000000
  0.500000  0.500000  0.500000      1.000000
 
 Following cartesian coordinates:
            Coordinates               Weight
  0.000000  0.000000  0.000000      1.000000
  0.015255  0.000000  0.000000      4.000000
  0.030510  0.000000  0.000000      4.000000
  0.045764  0.000000  0.000000      4.000000
  0.061019  0.000000  0.000000      4.000000
  0.076274  0.000000  0.000000      4.000000
  0.091529  0.000000  0.000000      4.000000
  0.106784  0.000000  0.000000      4.000000
  0.122039  0.000000  0.000000      4.000000
  0.137293  0.000000  0.000000      2.000000
  0.015255  0.015255  0.000000      4.000000
  0.030510  0.015255  0.000000      8.000000
  0.045764  0.015255  0.000000      8.000000
  0.061019  0.015255  0.000000      8.000000
  0.076274  0.015255  0.000000      8.000000
  0.091529  0.015255  0.000000      8.000000
  0.106784  0.015255  0.000000      8.000000
  0.122039  0.015255  0.000000      8.000000
  0.137293  0.015255  0.000000      4.000000
  0.030510  0.030510  0.000000      4.000000
  0.045764  0.030510  0.000000      8.000000
  0.061019  0.030510  0.000000      8.000000
  0.076274  0.030510  0.000000      8.000000
  0.091529  0.030510  0.000000      8.000000
  0.106784  0.030510  0.000000      8.000000
  0.122039  0.030510  0.000000      8.000000
  0.137293  0.030510  0.000000      4.000000
  0.045764  0.045764  0.000000      4.000000
  0.061019  0.045764  0.000000      8.000000
  0.076274  0.045764  0.000000      8.000000
  0.091529  0.045764  0.000000      8.000000
  0.106784  0.045764  0.000000      8.000000
  0.122039  0.045764  0.000000      8.000000
  0.137293  0.045764  0.000000      4.000000
  0.061019  0.061019  0.000000      4.000000
  0.076274  0.061019  0.000000      8.000000
  0.091529  0.061019  0.000000      8.000000
  0.106784  0.061019  0.000000      8.000000
  0.122039  0.061019  0.000000      8.000000
  0.137293  0.061019  0.000000      4.000000
  0.076274  0.076274  0.000000      4.000000
  0.091529  0.076274  0.000000      8.000000
  0.106784  0.076274  0.000000      8.000000
  0.122039  0.076274  0.000000      8.000000
  0.137293  0.076274  0.000000      4.000000
  0.091529  0.091529  0.000000      4.000000
  0.106784  0.091529  0.000000      8.000000
  0.122039  0.091529  0.000000      8.000000
  0.137293  0.091529  0.000000      4.000000
  0.106784  0.106784  0.000000      4.000000
  0.122039  0.106784  0.000000      8.000000
  0.137293  0.106784  0.000000      4.000000
  0.122039  0.122039  0.000000      4.000000
  0.137293  0.122039  0.000000      4.000000
  0.137293  0.137293  0.000000      1.000000
  0.000000  0.000000  0.015313      2.000000
  0.015255  0.000000  0.015313      8.000000
  0.030510  0.000000  0.015313      8.000000
  0.045764  0.000000  0.015313      8.000000
  0.061019  0.000000  0.015313      8.000000
  0.076274  0.000000  0.015313      8.000000
  0.091529  0.000000  0.015313      8.000000
  0.106784  0.000000  0.015313      8.000000
  0.122039  0.000000  0.015313      8.000000
  0.137293  0.000000  0.015313      4.000000
  0.015255  0.015255  0.015313      8.000000
  0.030510  0.015255  0.015313     16.000000
  0.045764  0.015255  0.015313     16.000000
  0.061019  0.015255  0.015313     16.000000
  0.076274  0.015255  0.015313     16.000000
  0.091529  0.015255  0.015313     16.000000
  0.106784  0.015255  0.015313     16.000000
  0.122039  0.015255  0.015313     16.000000
  0.137293  0.015255  0.015313      8.000000
  0.030510  0.030510  0.015313      8.000000
  0.045764  0.030510  0.015313     16.000000
  0.061019  0.030510  0.015313     16.000000
  0.076274  0.030510  0.015313     16.000000
  0.091529  0.030510  0.015313     16.000000
  0.106784  0.030510  0.015313     16.000000
  0.122039  0.030510  0.015313     16.000000
  0.137293  0.030510  0.015313      8.000000
  0.045764  0.045764  0.015313      8.000000
  0.061019  0.045764  0.015313     16.000000
  0.076274  0.045764  0.015313     16.000000
  0.091529  0.045764  0.015313     16.000000
  0.106784  0.045764  0.015313     16.000000
  0.122039  0.045764  0.015313     16.000000
  0.137293  0.045764  0.015313      8.000000
  0.061019  0.061019  0.015313      8.000000
  0.076274  0.061019  0.015313     16.000000
  0.091529  0.061019  0.015313     16.000000
  0.106784  0.061019  0.015313     16.000000
  0.122039  0.061019  0.015313     16.000000
  0.137293  0.061019  0.015313      8.000000
  0.076274  0.076274  0.015313      8.000000
  0.091529  0.076274  0.015313     16.000000
  0.106784  0.076274  0.015313     16.000000
  0.122039  0.076274  0.015313     16.000000
  0.137293  0.076274  0.015313      8.000000
  0.091529  0.091529  0.015313      8.000000
  0.106784  0.091529  0.015313     16.000000
  0.122039  0.091529  0.015313     16.000000
  0.137293  0.091529  0.015313      8.000000
  0.106784  0.106784  0.015313      8.000000
  0.122039  0.106784  0.015313     16.000000
  0.137293  0.106784  0.015313      8.000000
  0.122039  0.122039  0.015313      8.000000
  0.137293  0.122039  0.015313      8.000000
  0.137293  0.137293  0.015313      2.000000
  0.000000  0.000000  0.030626      2.000000
  0.015255  0.000000  0.030626      8.000000
  0.030510  0.000000  0.030626      8.000000
  0.045764  0.000000  0.030626      8.000000
  0.061019  0.000000  0.030626      8.000000
  0.076274  0.000000  0.030626      8.000000
  0.091529  0.000000  0.030626      8.000000
  0.106784  0.000000  0.030626      8.000000
  0.122039  0.000000  0.030626      8.000000
  0.137293  0.000000  0.030626      4.000000
  0.015255  0.015255  0.030626      8.000000
  0.030510  0.015255  0.030626     16.000000
  0.045764  0.015255  0.030626     16.000000
  0.061019  0.015255  0.030626     16.000000
  0.076274  0.015255  0.030626     16.000000
  0.091529  0.015255  0.030626     16.000000
  0.106784  0.015255  0.030626     16.000000
  0.122039  0.015255  0.030626     16.000000
  0.137293  0.015255  0.030626      8.000000
  0.030510  0.030510  0.030626      8.000000
  0.045764  0.030510  0.030626     16.000000
  0.061019  0.030510  0.030626     16.000000
  0.076274  0.030510  0.030626     16.000000
  0.091529  0.030510  0.030626     16.000000
  0.106784  0.030510  0.030626     16.000000
  0.122039  0.030510  0.030626     16.000000
  0.137293  0.030510  0.030626      8.000000
  0.045764  0.045764  0.030626      8.000000
  0.061019  0.045764  0.030626     16.000000
  0.076274  0.045764  0.030626     16.000000
  0.091529  0.045764  0.030626     16.000000
  0.106784  0.045764  0.030626     16.000000
  0.122039  0.045764  0.030626     16.000000
  0.137293  0.045764  0.030626      8.000000
  0.061019  0.061019  0.030626      8.000000
  0.076274  0.061019  0.030626     16.000000
  0.091529  0.061019  0.030626     16.000000
  0.106784  0.061019  0.030626     16.000000
  0.122039  0.061019  0.030626     16.000000
  0.137293  0.061019  0.030626      8.000000
  0.076274  0.076274  0.030626      8.000000
  0.091529  0.076274  0.030626     16.000000
  0.106784  0.076274  0.030626     16.000000
  0.122039  0.076274  0.030626     16.000000
  0.137293  0.076274  0.030626      8.000000
  0.091529  0.091529  0.030626      8.000000
  0.106784  0.091529  0.030626     16.000000
  0.122039  0.091529  0.030626     16.000000
  0.137293  0.091529  0.030626      8.000000
  0.106784  0.106784  0.030626      8.000000
  0.122039  0.106784  0.030626     16.000000
  0.137293  0.106784  0.030626      8.000000
  0.122039  0.122039  0.030626      8.000000
  0.137293  0.122039  0.030626      8.000000
  0.137293  0.137293  0.030626      2.000000
  0.000000  0.000000  0.045939      2.000000
  0.015255  0.000000  0.045939      8.000000
  0.030510  0.000000  0.045939      8.000000
  0.045764  0.000000  0.045939      8.000000
  0.061019  0.000000  0.045939      8.000000
  0.076274  0.000000  0.045939      8.000000
  0.091529  0.000000  0.045939      8.000000
  0.106784  0.000000  0.045939      8.000000
  0.122039  0.000000  0.045939      8.000000
  0.137293  0.000000  0.045939      4.000000
  0.015255  0.015255  0.045939      8.000000
  0.030510  0.015255  0.045939     16.000000
  0.045764  0.015255  0.045939     16.000000
  0.061019  0.015255  0.045939     16.000000
  0.076274  0.015255  0.045939     16.000000
  0.091529  0.015255  0.045939     16.000000
  0.106784  0.015255  0.045939     16.000000
  0.122039  0.015255  0.045939     16.000000
  0.137293  0.015255  0.045939      8.000000
  0.030510  0.030510  0.045939      8.000000
  0.045764  0.030510  0.045939     16.000000
  0.061019  0.030510  0.045939     16.000000
  0.076274  0.030510  0.045939     16.000000
  0.091529  0.030510  0.045939     16.000000
  0.106784  0.030510  0.045939     16.000000
  0.122039  0.030510  0.045939     16.000000
  0.137293  0.030510  0.045939      8.000000
  0.045764  0.045764  0.045939      8.000000
  0.061019  0.045764  0.045939     16.000000
  0.076274  0.045764  0.045939     16.000000
  0.091529  0.045764  0.045939     16.000000
  0.106784  0.045764  0.045939     16.000000
  0.122039  0.045764  0.045939     16.000000
  0.137293  0.045764  0.045939      8.000000
  0.061019  0.061019  0.045939      8.000000
  0.076274  0.061019  0.045939     16.000000
  0.091529  0.061019  0.045939     16.000000
  0.106784  0.061019  0.045939     16.000000
  0.122039  0.061019  0.045939     16.000000
  0.137293  0.061019  0.045939      8.000000
  0.076274  0.076274  0.045939      8.000000
  0.091529  0.076274  0.045939     16.000000
  0.106784  0.076274  0.045939     16.000000
  0.122039  0.076274  0.045939     16.000000
  0.137293  0.076274  0.045939      8.000000
  0.091529  0.091529  0.045939      8.000000
  0.106784  0.091529  0.045939     16.000000
  0.122039  0.091529  0.045939     16.000000
  0.137293  0.091529  0.045939      8.000000
  0.106784  0.106784  0.045939      8.000000
  0.122039  0.106784  0.045939     16.000000
  0.137293  0.106784  0.045939      8.000000
  0.122039  0.122039  0.045939      8.000000
  0.137293  0.122039  0.045939      8.000000
  0.137293  0.137293  0.045939      2.000000
  0.000000  0.000000  0.061252      2.000000
  0.015255  0.000000  0.061252      8.000000
  0.030510  0.000000  0.061252      8.000000
  0.045764  0.000000  0.061252      8.000000
  0.061019  0.000000  0.061252      8.000000
  0.076274  0.000000  0.061252      8.000000
  0.091529  0.000000  0.061252      8.000000
  0.106784  0.000000  0.061252      8.000000
  0.122039  0.000000  0.061252      8.000000
  0.137293  0.000000  0.061252      4.000000
  0.015255  0.015255  0.061252      8.000000
  0.030510  0.015255  0.061252     16.000000
  0.045764  0.015255  0.061252     16.000000
  0.061019  0.015255  0.061252     16.000000
  0.076274  0.015255  0.061252     16.000000
  0.091529  0.015255  0.061252     16.000000
  0.106784  0.015255  0.061252     16.000000
  0.122039  0.015255  0.061252     16.000000
  0.137293  0.015255  0.061252      8.000000
  0.030510  0.030510  0.061252      8.000000
  0.045764  0.030510  0.061252     16.000000
  0.061019  0.030510  0.061252     16.000000
  0.076274  0.030510  0.061252     16.000000
  0.091529  0.030510  0.061252     16.000000
  0.106784  0.030510  0.061252     16.000000
  0.122039  0.030510  0.061252     16.000000
  0.137293  0.030510  0.061252      8.000000
  0.045764  0.045764  0.061252      8.000000
  0.061019  0.045764  0.061252     16.000000
  0.076274  0.045764  0.061252     16.000000
  0.091529  0.045764  0.061252     16.000000
  0.106784  0.045764  0.061252     16.000000
  0.122039  0.045764  0.061252     16.000000
  0.137293  0.045764  0.061252      8.000000
  0.061019  0.061019  0.061252      8.000000
  0.076274  0.061019  0.061252     16.000000
  0.091529  0.061019  0.061252     16.000000
  0.106784  0.061019  0.061252     16.000000
  0.122039  0.061019  0.061252     16.000000
  0.137293  0.061019  0.061252      8.000000
  0.076274  0.076274  0.061252      8.000000
  0.091529  0.076274  0.061252     16.000000
  0.106784  0.076274  0.061252     16.000000
  0.122039  0.076274  0.061252     16.000000
  0.137293  0.076274  0.061252      8.000000
  0.091529  0.091529  0.061252      8.000000
  0.106784  0.091529  0.061252     16.000000
  0.122039  0.091529  0.061252     16.000000
  0.137293  0.091529  0.061252      8.000000
  0.106784  0.106784  0.061252      8.000000
  0.122039  0.106784  0.061252     16.000000
  0.137293  0.106784  0.061252      8.000000
  0.122039  0.122039  0.061252      8.000000
  0.137293  0.122039  0.061252      8.000000
  0.137293  0.137293  0.061252      2.000000
  0.000000  0.000000  0.076565      2.000000
  0.015255  0.000000  0.076565      8.000000
  0.030510  0.000000  0.076565      8.000000
  0.045764  0.000000  0.076565      8.000000
  0.061019  0.000000  0.076565      8.000000
  0.076274  0.000000  0.076565      8.000000
  0.091529  0.000000  0.076565      8.000000
  0.106784  0.000000  0.076565      8.000000
  0.122039  0.000000  0.076565      8.000000
  0.137293  0.000000  0.076565      4.000000
  0.015255  0.015255  0.076565      8.000000
  0.030510  0.015255  0.076565     16.000000
  0.045764  0.015255  0.076565     16.000000
  0.061019  0.015255  0.076565     16.000000
  0.076274  0.015255  0.076565     16.000000
  0.091529  0.015255  0.076565     16.000000
  0.106784  0.015255  0.076565     16.000000
  0.122039  0.015255  0.076565     16.000000
  0.137293  0.015255  0.076565      8.000000
  0.030510  0.030510  0.076565      8.000000
  0.045764  0.030510  0.076565     16.000000
  0.061019  0.030510  0.076565     16.000000
  0.076274  0.030510  0.076565     16.000000
  0.091529  0.030510  0.076565     16.000000
  0.106784  0.030510  0.076565     16.000000
  0.122039  0.030510  0.076565     16.000000
  0.137293  0.030510  0.076565      8.000000
  0.045764  0.045764  0.076565      8.000000
  0.061019  0.045764  0.076565     16.000000
  0.076274  0.045764  0.076565     16.000000
  0.091529  0.045764  0.076565     16.000000
  0.106784  0.045764  0.076565     16.000000
  0.122039  0.045764  0.076565     16.000000
  0.137293  0.045764  0.076565      8.000000
  0.061019  0.061019  0.076565      8.000000
  0.076274  0.061019  0.076565     16.000000
  0.091529  0.061019  0.076565     16.000000
  0.106784  0.061019  0.076565     16.000000
  0.122039  0.061019  0.076565     16.000000
  0.137293  0.061019  0.076565      8.000000
  0.076274  0.076274  0.076565      8.000000
  0.091529  0.076274  0.076565     16.000000
  0.106784  0.076274  0.076565     16.000000
  0.122039  0.076274  0.076565     16.000000
  0.137293  0.076274  0.076565      8.000000
  0.091529  0.091529  0.076565      8.000000
  0.106784  0.091529  0.076565     16.000000
  0.122039  0.091529  0.076565     16.000000
  0.137293  0.091529  0.076565      8.000000
  0.106784  0.106784  0.076565      8.000000
  0.122039  0.106784  0.076565     16.000000
  0.137293  0.106784  0.076565      8.000000
  0.122039  0.122039  0.076565      8.000000
  0.137293  0.122039  0.076565      8.000000
  0.137293  0.137293  0.076565      2.000000
  0.000000  0.000000  0.091878      1.000000
  0.015255  0.000000  0.091878      4.000000
  0.030510  0.000000  0.091878      4.000000
  0.045764  0.000000  0.091878      4.000000
  0.061019  0.000000  0.091878      4.000000
  0.076274  0.000000  0.091878      4.000000
  0.091529  0.000000  0.091878      4.000000
  0.106784  0.000000  0.091878      4.000000
  0.122039  0.000000  0.091878      4.000000
  0.137293  0.000000  0.091878      2.000000
  0.015255  0.015255  0.091878      4.000000
  0.030510  0.015255  0.091878      8.000000
  0.045764  0.015255  0.091878      8.000000
  0.061019  0.015255  0.091878      8.000000
  0.076274  0.015255  0.091878      8.000000
  0.091529  0.015255  0.091878      8.000000
  0.106784  0.015255  0.091878      8.000000
  0.122039  0.015255  0.091878      8.000000
  0.137293  0.015255  0.091878      4.000000
  0.030510  0.030510  0.091878      4.000000
  0.045764  0.030510  0.091878      8.000000
  0.061019  0.030510  0.091878      8.000000
  0.076274  0.030510  0.091878      8.000000
  0.091529  0.030510  0.091878      8.000000
  0.106784  0.030510  0.091878      8.000000
  0.122039  0.030510  0.091878      8.000000
  0.137293  0.030510  0.091878      4.000000
  0.045764  0.045764  0.091878      4.000000
  0.061019  0.045764  0.091878      8.000000
  0.076274  0.045764  0.091878      8.000000
  0.091529  0.045764  0.091878      8.000000
  0.106784  0.045764  0.091878      8.000000
  0.122039  0.045764  0.091878      8.000000
  0.137293  0.045764  0.091878      4.000000
  0.061019  0.061019  0.091878      4.000000
  0.076274  0.061019  0.091878      8.000000
  0.091529  0.061019  0.091878      8.000000
  0.106784  0.061019  0.091878      8.000000
  0.122039  0.061019  0.091878      8.000000
  0.137293  0.061019  0.091878      4.000000
  0.076274  0.076274  0.091878      4.000000
  0.091529  0.076274  0.091878      8.000000
  0.106784  0.076274  0.091878      8.000000
  0.122039  0.076274  0.091878      8.000000
  0.137293  0.076274  0.091878      4.000000
  0.091529  0.091529  0.091878      4.000000
  0.106784  0.091529  0.091878      8.000000
  0.122039  0.091529  0.091878      8.000000
  0.137293  0.091529  0.091878      4.000000
  0.106784  0.106784  0.091878      4.000000
  0.122039  0.106784  0.091878      8.000000
  0.137293  0.106784  0.091878      4.000000
  0.122039  0.122039  0.091878      4.000000
  0.137293  0.122039  0.091878      4.000000
  0.137293  0.137293  0.091878      1.000000
 


--------------------------------------------------------------------------------------------------------




 Dimension of arrays:
   k-points           NKPTS =      385   k-points in BZ     NKDIM =      385   number of bands    NBANDS=     24
   number of dos      NEDOS =   5000   number of ions     NIONS =      4
   non local maximal  LDIM  =      6   non local SUM 2l+1 LMDIM =     18
   total plane-waves  NPLWV =  64800
   max r-space proj   IRMAX =      1   max aug-charges    IRDMAX=  39348
   dimension x,y,z NGX =    36 NGY =   36 NGZ =   50
   dimension x,y,z NGXF=    72 NGYF=   72 NGZF=  100
   support grid    NGXF=    72 NGYF=   72 NGZF=  100
   ions per type =               2   2
 NGX,Y,Z   is equivalent  to a cutoff of  16.43, 16.43, 15.27 a.u.
 NGXF,Y,Z  is equivalent  to a cutoff of  32.87, 32.87, 30.55 a.u.


 I would recommend the setting:
   dimension x,y,z NGX =    33 NGY =   33 NGZ =   50
 SYSTEM =  unknown system                          
 POSCAR =  JVASP-12148_mp-604908                   

 Startparameter for this run:
   NWRITE =      2    write-flag & timer
   PREC   = accura    normal or accurate (medium, high low for compatibility)
   ISTART =      0    job   : 0-new  1-cont  2-samecut
   ICHARG =      2    charge: 1-file 2-atom 10-const
   ISPIN  =      2    spin polarized calculation?
   LNONCOLLINEAR =      F non collinear calculations
   LSORBIT =      F    spin-orbit coupling
   INIWAV =      1    electr: 0-lowe 1-rand  2-diag
   LASPH  =      F    aspherical Exc in radial PAW
   METAGGA=      F    non-selfconsistent MetaGGA calc.

 Electronic Relaxation 1
   ENCUT  =  780.0 eV  57.33 Ry    7.57 a.u.   8.29  8.29 12.39*2*pi/ulx,y,z
   ENINI  =  780.0     initial cutoff
   ENAUG  =  477.8 eV  augmentation charge cutoff
   NELM   =    500;   NELMIN=  2; NELMDL= -5     # of ELM steps 
   EDIFF  = 0.1E-06   stopping-criterion for ELM
   LREAL  =      F    real-space projection
   NLSPLINE    = F    spline interpolate recip. space projectors
   LCOMPAT=      F    compatible to vasp.4.4
   GGA_COMPAT  = T    GGA compatible to vasp.4.4-vasp.4.6
   LMAXPAW     = -100 max onsite density
   LMAXMIX     =    2 max onsite mixed and CHGCAR
   VOSKOWN=      0    Vosko Wilk Nusair interpolation
   ROPT   =    0.00000   0.00000
 Ionic relaxation
   EDIFFG = 0.1E-05   stopping-criterion for IOM
   NSW    =      0    number of steps for IOM
   NBLOCK =      1;   KBLOCK =      1    inner block; outer block 
   IBRION =     -1    ionic relax: 0-MD 1-quasi-New 2-CG
   NFREE  =      1    steps in history (QN), initial steepest desc. (CG)
   ISIF   =      2    stress and relaxation
   IWAVPR =     10    prediction:  0-non 1-charg 2-wave 3-comb
   ISYM   =      2    0-nonsym 1-usesym 2-fastsym
   LCORR  =      T    Harris-Foulkes like correction to forces

   POTIM  = 0.5000    time-step for ionic-motion
   TEIN   =    0.0    initial temperature
   TEBEG  =    0.0;   TEEND  =   0.0 temperature during run
   SMASS  =  -3.00    Nose mass-parameter (am)
   estimated Nose-frequenzy (Omega)   =  0.10E-29 period in steps =****** mass=  -0.303E-27a.u.
   SCALEE = 1.0000    scale energy and forces
   NPACO  =    256;   APACO  = 16.0  distance and # of slots for P.C.
   PSTRESS=    0.0 pullay stress

  Mass of Ions in am
   POMASS =  58.93 78.96
  Ionic Valenz
   ZVAL   =   9.00  6.00
  Atomic Wigner-Seitz radii
   RWIGS  =  -1.00 -1.00
  virtual crystal weights 
   VCA    =   1.00  1.00
   NELECT =      30.0000    total number of electrons
   NUPDOWN=      -1.0000    fix difference up-down

 DOS related values:
   EMIN   =  10.00;   EMAX   =-10.00  energy-range for DOS
   EFERMI =   0.00
   ISMEAR =     0;   SIGMA  =   0.01  broadening in eV -4-tet -1-fermi 0-gaus

 Electronic relaxation 2 (details)
   IALGO  =     38    algorithm
   LDIAG  =      T    sub-space diagonalisation (order eigenvalues)
   LSUBROT=      F    optimize rotation matrix (better conditioning)
   TURBO    =      0    0=normal 1=particle mesh
   IRESTART =      0    0=no restart 2=restart with 2 vectors
   NREBOOT  =      0    no. of reboots
   NMIN     =      0    reboot dimension
   EREF     =   0.00    reference energy to select bands
   IMIX   =      4    mixing-type and parameters
     AMIX     =   0.40;   BMIX     =  1.00
     AMIX_MAG =   1.60;   BMIX_MAG =  1.00
     AMIN     =   0.10
     WC   =   100.;   INIMIX=   1;  MIXPRE=   1;  MAXMIX= -45

 Intra band minimization:
   WEIMIN = 0.0000     energy-eigenvalue tresh-hold
   EBREAK =  0.10E-08  absolut break condition
   DEPER  =   0.30     relativ break condition  

   TIME   =   0.40     timestep for ELM

  volume/ion in A,a.u.               =      18.04       121.77
  Fermi-wavevector in a.u.,A,eV,Ry     =   1.221752  2.308776 20.309106  1.492677
  Thomas-Fermi vector in A             =   2.356923

 Write flags
   LWAVE  =      F    write WAVECAR
   LCHARG =      F    write CHGCAR
   LVTOT  =      F    write LOCPOT, total local potential
   LVHAR  =      F    write LOCPOT, Hartree potential only
   LELF   =      F    write electronic localiz. function (ELF)
   LORBIT =     12    0 simple, 1 ext, 2 COOP (PROOUT)


 Dipole corrections
   LMONO  =      F    monopole corrections only (constant potential shift)
   LDIPOL =      F    correct potential (dipole corrections)
   IDIPOL =      0    1-x, 2-y, 3-z, 4-all directions 
   EPSILON=  1.0000000 bulk dielectric constant

 Exchange correlation treatment:
   GGA     =    BO    GGA type
   LEXCH   =    42    internal setting for exchange type
   VOSKOWN=      0    Vosko Wilk Nusair interpolation
   LHFCALC =     F    Hartree Fock is set to
   LHFONE  =     F    Hartree Fock one center treatment
   AEXX    =    0.0000 exact exchange contribution

 vdW DFT:
   LUSE_VDW   =     T    switch on vdW DFT
   Zab_VDW    =-.8491    correlation parameter
   PARAM1     =0.1833
   PARAM2     =0.2200
   PARAM3     =0.0000

 Linear response parameters
   LEPSILON=     F    determine dielectric tensor
   LRPA    =     F    only Hartree local field effects (RPA)
   LNABLA  =     F    use nabla operator in PAW spheres
   LVEL    =     F    velocity operator in full k-point grid
   LINTERFAST=   F  fast interpolation
   KINTER  =     0    interpolate to denser k-point grid
   CSHIFT  =0.1000    complex shift for real part using Kramers Kronig
   OMEGAMAX=  -1.0    maximum frequency
   DEG_THRESHOLD= 0.2000000E-02 threshold for treating states as degnerate
   RTIME   =    0.100 relaxation time in fs

 Orbital magnetization related:
   ORBITALMAG=     F  switch on orbital magnetization
   LCHIMAG   =     F  perturbation theory with respect to B field
   DQ        =  0.001000  dq finite difference perturbation B field



--------------------------------------------------------------------------------------------------------


 Static calculation
 charge density and potential will be updated during run
 spin polarized calculation
 Variant of blocked Davidson
 Davidson routine will perform the subspace rotation
 perform sub-space diagonalisation
    after iterative eigenvector-optimisation
 modified Broyden-mixing scheme, WC =      100.0
 initial mixing is a Kerker type mixing with AMIX =  0.4000 and BMIX =      1.0000
 Hartree-type preconditioning will be used
 using additional bands            9
 reciprocal scheme for non local part
 use partial core corrections
 calculate Harris-corrections to forces   (improved forces if not selfconsistent)
 use gradient corrections 
 use of overlap-Matrix (Vanderbilt PP)
 Gauss-broadening in eV      SIGMA  =   0.01


--------------------------------------------------------------------------------------------------------


  energy-cutoff  :      780.00
  volume of cell :       72.18
      direct lattice vectors                 reciprocal lattice vectors
     3.641835000  0.000000000  0.000000000     0.274586850  0.000000000  0.000000000
     0.000000000  3.641835000  0.000000000     0.000000000  0.274586850  0.000000000
     0.000000000  0.000000000  5.441973000     0.000000000  0.000000000  0.183756884

  length of vectors
     3.641835000  3.641835000  5.441973000     0.274586850  0.274586850  0.183756884



 k-points in units of 2pi/SCALE and weight: Automatic kpoint scheme                 
   0.00000000  0.00000000  0.00000000       0.000
   0.01525482  0.00000000  0.00000000       0.001
   0.03050965  0.00000000  0.00000000       0.001
   0.04576447  0.00000000  0.00000000       0.001
   0.06101930  0.00000000  0.00000000       0.001
   0.07627412  0.00000000  0.00000000       0.001
   0.09152895  0.00000000  0.00000000       0.001
   0.10678377  0.00000000  0.00000000       0.001
   0.12203860  0.00000000  0.00000000       0.001
   0.13729342  0.00000000  0.00000000       0.001
   0.01525482  0.01525482  0.00000000       0.001
   0.03050965  0.01525482  0.00000000       0.002
   0.04576447  0.01525482  0.00000000       0.002
   0.06101930  0.01525482  0.00000000       0.002
   0.07627412  0.01525482  0.00000000       0.002
   0.09152895  0.01525482  0.00000000       0.002
   0.10678377  0.01525482  0.00000000       0.002
   0.12203860  0.01525482  0.00000000       0.002
   0.13729342  0.01525482  0.00000000       0.001
   0.03050965  0.03050965  0.00000000       0.001
   0.04576447  0.03050965  0.00000000       0.002
   0.06101930  0.03050965  0.00000000       0.002
   0.07627412  0.03050965  0.00000000       0.002
   0.09152895  0.03050965  0.00000000       0.002
   0.10678377  0.03050965  0.00000000       0.002
   0.12203860  0.03050965  0.00000000       0.002
   0.13729342  0.03050965  0.00000000       0.001
   0.04576447  0.04576447  0.00000000       0.001
   0.06101930  0.04576447  0.00000000       0.002
   0.07627412  0.04576447  0.00000000       0.002
   0.09152895  0.04576447  0.00000000       0.002
   0.10678377  0.04576447  0.00000000       0.002
   0.12203860  0.04576447  0.00000000       0.002
   0.13729342  0.04576447  0.00000000       0.001
   0.06101930  0.06101930  0.00000000       0.001
   0.07627412  0.06101930  0.00000000       0.002
   0.09152895  0.06101930  0.00000000       0.002
   0.10678377  0.06101930  0.00000000       0.002
   0.12203860  0.06101930  0.00000000       0.002
   0.13729342  0.06101930  0.00000000       0.001
   0.07627412  0.07627412  0.00000000       0.001
   0.09152895  0.07627412  0.00000000       0.002
   0.10678377  0.07627412  0.00000000       0.002
   0.12203860  0.07627412  0.00000000       0.002
   0.13729342  0.07627412  0.00000000       0.001
   0.09152895  0.09152895  0.00000000       0.001
   0.10678377  0.09152895  0.00000000       0.002
   0.12203860  0.09152895  0.00000000       0.002
   0.13729342  0.09152895  0.00000000       0.001
   0.10678377  0.10678377  0.00000000       0.001
   0.12203860  0.10678377  0.00000000       0.002
   0.13729342  0.10678377  0.00000000       0.001
   0.12203860  0.12203860  0.00000000       0.001
   0.13729342  0.12203860  0.00000000       0.001
   0.13729342  0.13729342  0.00000000       0.000
   0.00000000  0.00000000  0.01531307       0.001
   0.01525482  0.00000000  0.01531307       0.002
   0.03050965  0.00000000  0.01531307       0.002
   0.04576447  0.00000000  0.01531307       0.002
   0.06101930  0.00000000  0.01531307       0.002
   0.07627412  0.00000000  0.01531307       0.002
   0.09152895  0.00000000  0.01531307       0.002
   0.10678377  0.00000000  0.01531307       0.002
   0.12203860  0.00000000  0.01531307       0.002
   0.13729342  0.00000000  0.01531307       0.001
   0.01525482  0.01525482  0.01531307       0.002
   0.03050965  0.01525482  0.01531307       0.004
   0.04576447  0.01525482  0.01531307       0.004
   0.06101930  0.01525482  0.01531307       0.004
   0.07627412  0.01525482  0.01531307       0.004
   0.09152895  0.01525482  0.01531307       0.004
   0.10678377  0.01525482  0.01531307       0.004
   0.12203860  0.01525482  0.01531307       0.004
   0.13729342  0.01525482  0.01531307       0.002
   0.03050965  0.03050965  0.01531307       0.002
   0.04576447  0.03050965  0.01531307       0.004
   0.06101930  0.03050965  0.01531307       0.004
   0.07627412  0.03050965  0.01531307       0.004
   0.09152895  0.03050965  0.01531307       0.004
   0.10678377  0.03050965  0.01531307       0.004
   0.12203860  0.03050965  0.01531307       0.004
   0.13729342  0.03050965  0.01531307       0.002
   0.04576447  0.04576447  0.01531307       0.002
   0.06101930  0.04576447  0.01531307       0.004
   0.07627412  0.04576447  0.01531307       0.004
   0.09152895  0.04576447  0.01531307       0.004
   0.10678377  0.04576447  0.01531307       0.004
   0.12203860  0.04576447  0.01531307       0.004
   0.13729342  0.04576447  0.01531307       0.002
   0.06101930  0.06101930  0.01531307       0.002
   0.07627412  0.06101930  0.01531307       0.004
   0.09152895  0.06101930  0.01531307       0.004
   0.10678377  0.06101930  0.01531307       0.004
   0.12203860  0.06101930  0.01531307       0.004
   0.13729342  0.06101930  0.01531307       0.002
   0.07627412  0.07627412  0.01531307       0.002
   0.09152895  0.07627412  0.01531307       0.004
   0.10678377  0.07627412  0.01531307       0.004
   0.12203860  0.07627412  0.01531307       0.004
   0.13729342  0.07627412  0.01531307       0.002
   0.09152895  0.09152895  0.01531307       0.002
   0.10678377  0.09152895  0.01531307       0.004
   0.12203860  0.09152895  0.01531307       0.004
   0.13729342  0.09152895  0.01531307       0.002
   0.10678377  0.10678377  0.01531307       0.002
   0.12203860  0.10678377  0.01531307       0.004
   0.13729342  0.10678377  0.01531307       0.002
   0.12203860  0.12203860  0.01531307       0.002
   0.13729342  0.12203860  0.01531307       0.002
   0.13729342  0.13729342  0.01531307       0.001
   0.00000000  0.00000000  0.03062615       0.001
   0.01525482  0.00000000  0.03062615       0.002
   0.03050965  0.00000000  0.03062615       0.002
   0.04576447  0.00000000  0.03062615       0.002
   0.06101930  0.00000000  0.03062615       0.002
   0.07627412  0.00000000  0.03062615       0.002
   0.09152895  0.00000000  0.03062615       0.002
   0.10678377  0.00000000  0.03062615       0.002
   0.12203860  0.00000000  0.03062615       0.002
   0.13729342  0.00000000  0.03062615       0.001
   0.01525482  0.01525482  0.03062615       0.002
   0.03050965  0.01525482  0.03062615       0.004
   0.04576447  0.01525482  0.03062615       0.004
   0.06101930  0.01525482  0.03062615       0.004
   0.07627412  0.01525482  0.03062615       0.004
   0.09152895  0.01525482  0.03062615       0.004
   0.10678377  0.01525482  0.03062615       0.004
   0.12203860  0.01525482  0.03062615       0.004
   0.13729342  0.01525482  0.03062615       0.002
   0.03050965  0.03050965  0.03062615       0.002
   0.04576447  0.03050965  0.03062615       0.004
   0.06101930  0.03050965  0.03062615       0.004
   0.07627412  0.03050965  0.03062615       0.004
   0.09152895  0.03050965  0.03062615       0.004
   0.10678377  0.03050965  0.03062615       0.004
   0.12203860  0.03050965  0.03062615       0.004
   0.13729342  0.03050965  0.03062615       0.002
   0.04576447  0.04576447  0.03062615       0.002
   0.06101930  0.04576447  0.03062615       0.004
   0.07627412  0.04576447  0.03062615       0.004
   0.09152895  0.04576447  0.03062615       0.004
   0.10678377  0.04576447  0.03062615       0.004
   0.12203860  0.04576447  0.03062615       0.004
   0.13729342  0.04576447  0.03062615       0.002
   0.06101930  0.06101930  0.03062615       0.002
   0.07627412  0.06101930  0.03062615       0.004
   0.09152895  0.06101930  0.03062615       0.004
   0.10678377  0.06101930  0.03062615       0.004
   0.12203860  0.06101930  0.03062615       0.004
   0.13729342  0.06101930  0.03062615       0.002
   0.07627412  0.07627412  0.03062615       0.002
   0.09152895  0.07627412  0.03062615       0.004
   0.10678377  0.07627412  0.03062615       0.004
   0.12203860  0.07627412  0.03062615       0.004
   0.13729342  0.07627412  0.03062615       0.002
   0.09152895  0.09152895  0.03062615       0.002
   0.10678377  0.09152895  0.03062615       0.004
   0.12203860  0.09152895  0.03062615       0.004
   0.13729342  0.09152895  0.03062615       0.002
   0.10678377  0.10678377  0.03062615       0.002
   0.12203860  0.10678377  0.03062615       0.004
   0.13729342  0.10678377  0.03062615       0.002
   0.12203860  0.12203860  0.03062615       0.002
   0.13729342  0.12203860  0.03062615       0.002
   0.13729342  0.13729342  0.03062615       0.001
   0.00000000  0.00000000  0.04593922       0.001
   0.01525482  0.00000000  0.04593922       0.002
   0.03050965  0.00000000  0.04593922       0.002
   0.04576447  0.00000000  0.04593922       0.002
   0.06101930  0.00000000  0.04593922       0.002
   0.07627412  0.00000000  0.04593922       0.002
   0.09152895  0.00000000  0.04593922       0.002
   0.10678377  0.00000000  0.04593922       0.002
   0.12203860  0.00000000  0.04593922       0.002
   0.13729342  0.00000000  0.04593922       0.001
   0.01525482  0.01525482  0.04593922       0.002
   0.03050965  0.01525482  0.04593922       0.004
   0.04576447  0.01525482  0.04593922       0.004
   0.06101930  0.01525482  0.04593922       0.004
   0.07627412  0.01525482  0.04593922       0.004
   0.09152895  0.01525482  0.04593922       0.004
   0.10678377  0.01525482  0.04593922       0.004
   0.12203860  0.01525482  0.04593922       0.004
   0.13729342  0.01525482  0.04593922       0.002
   0.03050965  0.03050965  0.04593922       0.002
   0.04576447  0.03050965  0.04593922       0.004
   0.06101930  0.03050965  0.04593922       0.004
   0.07627412  0.03050965  0.04593922       0.004
   0.09152895  0.03050965  0.04593922       0.004
   0.10678377  0.03050965  0.04593922       0.004
   0.12203860  0.03050965  0.04593922       0.004
   0.13729342  0.03050965  0.04593922       0.002
   0.04576447  0.04576447  0.04593922       0.002
   0.06101930  0.04576447  0.04593922       0.004
   0.07627412  0.04576447  0.04593922       0.004
   0.09152895  0.04576447  0.04593922       0.004
   0.10678377  0.04576447  0.04593922       0.004
   0.12203860  0.04576447  0.04593922       0.004
   0.13729342  0.04576447  0.04593922       0.002
   0.06101930  0.06101930  0.04593922       0.002
   0.07627412  0.06101930  0.04593922       0.004
   0.09152895  0.06101930  0.04593922       0.004
   0.10678377  0.06101930  0.04593922       0.004
   0.12203860  0.06101930  0.04593922       0.004
   0.13729342  0.06101930  0.04593922       0.002
   0.07627412  0.07627412  0.04593922       0.002
   0.09152895  0.07627412  0.04593922       0.004
   0.10678377  0.07627412  0.04593922       0.004
   0.12203860  0.07627412  0.04593922       0.004
   0.13729342  0.07627412  0.04593922       0.002
   0.09152895  0.09152895  0.04593922       0.002
   0.10678377  0.09152895  0.04593922       0.004
   0.12203860  0.09152895  0.04593922       0.004
   0.13729342  0.09152895  0.04593922       0.002
   0.10678377  0.10678377  0.04593922       0.002
   0.12203860  0.10678377  0.04593922       0.004
   0.13729342  0.10678377  0.04593922       0.002
   0.12203860  0.12203860  0.04593922       0.002
   0.13729342  0.12203860  0.04593922       0.002
   0.13729342  0.13729342  0.04593922       0.001
   0.00000000  0.00000000  0.06125229       0.001
   0.01525482  0.00000000  0.06125229       0.002
   0.03050965  0.00000000  0.06125229       0.002
   0.04576447  0.00000000  0.06125229       0.002
   0.06101930  0.00000000  0.06125229       0.002
   0.07627412  0.00000000  0.06125229       0.002
   0.09152895  0.00000000  0.06125229       0.002
   0.10678377  0.00000000  0.06125229       0.002
   0.12203860  0.00000000  0.06125229       0.002
   0.13729342  0.00000000  0.06125229       0.001
   0.01525482  0.01525482  0.06125229       0.002
   0.03050965  0.01525482  0.06125229       0.004
   0.04576447  0.01525482  0.06125229       0.004
   0.06101930  0.01525482  0.06125229       0.004
   0.07627412  0.01525482  0.06125229       0.004
   0.09152895  0.01525482  0.06125229       0.004
   0.10678377  0.01525482  0.06125229       0.004
   0.12203860  0.01525482  0.06125229       0.004
   0.13729342  0.01525482  0.06125229       0.002
   0.03050965  0.03050965  0.06125229       0.002
   0.04576447  0.03050965  0.06125229       0.004
   0.06101930  0.03050965  0.06125229       0.004
   0.07627412  0.03050965  0.06125229       0.004
   0.09152895  0.03050965  0.06125229       0.004
   0.10678377  0.03050965  0.06125229       0.004
   0.12203860  0.03050965  0.06125229       0.004
   0.13729342  0.03050965  0.06125229       0.002
   0.04576447  0.04576447  0.06125229       0.002
   0.06101930  0.04576447  0.06125229       0.004
   0.07627412  0.04576447  0.06125229       0.004
   0.09152895  0.04576447  0.06125229       0.004
   0.10678377  0.04576447  0.06125229       0.004
   0.12203860  0.04576447  0.06125229       0.004
   0.13729342  0.04576447  0.06125229       0.002
   0.06101930  0.06101930  0.06125229       0.002
   0.07627412  0.06101930  0.06125229       0.004
   0.09152895  0.06101930  0.06125229       0.004
   0.10678377  0.06101930  0.06125229       0.004
   0.12203860  0.06101930  0.06125229       0.004
   0.13729342  0.06101930  0.06125229       0.002
   0.07627412  0.07627412  0.06125229       0.002
   0.09152895  0.07627412  0.06125229       0.004
   0.10678377  0.07627412  0.06125229       0.004
   0.12203860  0.07627412  0.06125229       0.004
   0.13729342  0.07627412  0.06125229       0.002
   0.09152895  0.09152895  0.06125229       0.002
   0.10678377  0.09152895  0.06125229       0.004
   0.12203860  0.09152895  0.06125229       0.004
   0.13729342  0.09152895  0.06125229       0.002
   0.10678377  0.10678377  0.06125229       0.002
   0.12203860  0.10678377  0.06125229       0.004
   0.13729342  0.10678377  0.06125229       0.002
   0.12203860  0.12203860  0.06125229       0.002
   0.13729342  0.12203860  0.06125229       0.002
   0.13729342  0.13729342  0.06125229       0.001
   0.00000000  0.00000000  0.07656537       0.001
   0.01525482  0.00000000  0.07656537       0.002
   0.03050965  0.00000000  0.07656537       0.002
   0.04576447  0.00000000  0.07656537       0.002
   0.06101930  0.00000000  0.07656537       0.002
   0.07627412  0.00000000  0.07656537       0.002
   0.09152895  0.00000000  0.07656537       0.002
   0.10678377  0.00000000  0.07656537       0.002
   0.12203860  0.00000000  0.07656537       0.002
   0.13729342  0.00000000  0.07656537       0.001
   0.01525482  0.01525482  0.07656537       0.002
   0.03050965  0.01525482  0.07656537       0.004
   0.04576447  0.01525482  0.07656537       0.004
   0.06101930  0.01525482  0.07656537       0.004
   0.07627412  0.01525482  0.07656537       0.004
   0.09152895  0.01525482  0.07656537       0.004
   0.10678377  0.01525482  0.07656537       0.004
   0.12203860  0.01525482  0.07656537       0.004
   0.13729342  0.01525482  0.07656537       0.002
   0.03050965  0.03050965  0.07656537       0.002
   0.04576447  0.03050965  0.07656537       0.004
   0.06101930  0.03050965  0.07656537       0.004
   0.07627412  0.03050965  0.07656537       0.004
   0.09152895  0.03050965  0.07656537       0.004
   0.10678377  0.03050965  0.07656537       0.004
   0.12203860  0.03050965  0.07656537       0.004
   0.13729342  0.03050965  0.07656537       0.002
   0.04576447  0.04576447  0.07656537       0.002
   0.06101930  0.04576447  0.07656537       0.004
   0.07627412  0.04576447  0.07656537       0.004
   0.09152895  0.04576447  0.07656537       0.004
   0.10678377  0.04576447  0.07656537       0.004
   0.12203860  0.04576447  0.07656537       0.004
   0.13729342  0.04576447  0.07656537       0.002
   0.06101930  0.06101930  0.07656537       0.002
   0.07627412  0.06101930  0.07656537       0.004
   0.09152895  0.06101930  0.07656537       0.004
   0.10678377  0.06101930  0.07656537       0.004
   0.12203860  0.06101930  0.07656537       0.004
   0.13729342  0.06101930  0.07656537       0.002
   0.07627412  0.07627412  0.07656537       0.002
   0.09152895  0.07627412  0.07656537       0.004
   0.10678377  0.07627412  0.07656537       0.004
   0.12203860  0.07627412  0.07656537       0.004
   0.13729342  0.07627412  0.07656537       0.002
   0.09152895  0.09152895  0.07656537       0.002
   0.10678377  0.09152895  0.07656537       0.004
   0.12203860  0.09152895  0.07656537       0.004
   0.13729342  0.09152895  0.07656537       0.002
   0.10678377  0.10678377  0.07656537       0.002
   0.12203860  0.10678377  0.07656537       0.004
   0.13729342  0.10678377  0.07656537       0.002
   0.12203860  0.12203860  0.07656537       0.002
   0.13729342  0.12203860  0.07656537       0.002
   0.13729342  0.13729342  0.07656537       0.001
   0.00000000  0.00000000  0.09187844       0.000
   0.01525482  0.00000000  0.09187844       0.001
   0.03050965  0.00000000  0.09187844       0.001
   0.04576447  0.00000000  0.09187844       0.001
   0.06101930  0.00000000  0.09187844       0.001
   0.07627412  0.00000000  0.09187844       0.001
   0.09152895  0.00000000  0.09187844       0.001
   0.10678377  0.00000000  0.09187844       0.001
   0.12203860  0.00000000  0.09187844       0.001
   0.13729342  0.00000000  0.09187844       0.001
   0.01525482  0.01525482  0.09187844       0.001
   0.03050965  0.01525482  0.09187844       0.002
   0.04576447  0.01525482  0.09187844       0.002
   0.06101930  0.01525482  0.09187844       0.002
   0.07627412  0.01525482  0.09187844       0.002
   0.09152895  0.01525482  0.09187844       0.002
   0.10678377  0.01525482  0.09187844       0.002
   0.12203860  0.01525482  0.09187844       0.002
   0.13729342  0.01525482  0.09187844       0.001
   0.03050965  0.03050965  0.09187844       0.001
   0.04576447  0.03050965  0.09187844       0.002
   0.06101930  0.03050965  0.09187844       0.002
   0.07627412  0.03050965  0.09187844       0.002
   0.09152895  0.03050965  0.09187844       0.002
   0.10678377  0.03050965  0.09187844       0.002
   0.12203860  0.03050965  0.09187844       0.002
   0.13729342  0.03050965  0.09187844       0.001
   0.04576447  0.04576447  0.09187844       0.001
   0.06101930  0.04576447  0.09187844       0.002
   0.07627412  0.04576447  0.09187844       0.002
   0.09152895  0.04576447  0.09187844       0.002
   0.10678377  0.04576447  0.09187844       0.002
   0.12203860  0.04576447  0.09187844       0.002
   0.13729342  0.04576447  0.09187844       0.001
   0.06101930  0.06101930  0.09187844       0.001
   0.07627412  0.06101930  0.09187844       0.002
   0.09152895  0.06101930  0.09187844       0.002
   0.10678377  0.06101930  0.09187844       0.002
   0.12203860  0.06101930  0.09187844       0.002
   0.13729342  0.06101930  0.09187844       0.001
   0.07627412  0.07627412  0.09187844       0.001
   0.09152895  0.07627412  0.09187844       0.002
   0.10678377  0.07627412  0.09187844       0.002
   0.12203860  0.07627412  0.09187844       0.002
   0.13729342  0.07627412  0.09187844       0.001
   0.09152895  0.09152895  0.09187844       0.001
   0.10678377  0.09152895  0.09187844       0.002
   0.12203860  0.09152895  0.09187844       0.002
   0.13729342  0.09152895  0.09187844       0.001
   0.10678377  0.10678377  0.09187844       0.001
   0.12203860  0.10678377  0.09187844       0.002
   0.13729342  0.10678377  0.09187844       0.001
   0.12203860  0.12203860  0.09187844       0.001
   0.13729342  0.12203860  0.09187844       0.001
   0.13729342  0.13729342  0.09187844       0.000

 k-points in reciprocal lattice and weights: Automatic kpoint scheme                 
   0.00000000  0.00000000  0.00000000       0.000
   0.05555556  0.00000000  0.00000000       0.001
   0.11111111  0.00000000  0.00000000       0.001
   0.16666667  0.00000000  0.00000000       0.001
   0.22222222  0.00000000  0.00000000       0.001
   0.27777778  0.00000000  0.00000000       0.001
   0.33333333  0.00000000  0.00000000       0.001
   0.38888889  0.00000000  0.00000000       0.001
   0.44444444  0.00000000  0.00000000       0.001
   0.50000000  0.00000000  0.00000000       0.001
   0.05555556  0.05555556  0.00000000       0.001
   0.11111111  0.05555556  0.00000000       0.002
   0.16666667  0.05555556  0.00000000       0.002
   0.22222222  0.05555556  0.00000000       0.002
   0.27777778  0.05555556  0.00000000       0.002
   0.33333333  0.05555556  0.00000000       0.002
   0.38888889  0.05555556  0.00000000       0.002
   0.44444444  0.05555556  0.00000000       0.002
   0.50000000  0.05555556  0.00000000       0.001
   0.11111111  0.11111111  0.00000000       0.001
   0.16666667  0.11111111  0.00000000       0.002
   0.22222222  0.11111111  0.00000000       0.002
   0.27777778  0.11111111  0.00000000       0.002
   0.33333333  0.11111111  0.00000000       0.002
   0.38888889  0.11111111  0.00000000       0.002
   0.44444444  0.11111111  0.00000000       0.002
[...]
      1      -7.8748      1.00000
      2      -7.8632      1.00000
      3      -0.2029      1.00000
      4      -0.1173      1.00000
      5       0.9717      1.00000
      6       1.0805      1.00000
      7       1.9786      1.00000
      8       2.0365      1.00000
      9       3.2665      1.00000
     10       3.3466      1.00000
     11       3.4301      1.00000
     12       3.5128      1.00000
     13       4.4106      1.00000
     14       4.5791      1.00000
     15       4.6898      1.00000
     16       4.7360      1.00000
     17       6.1299      0.00000
     18       6.1868      0.00000
     19      11.8141      0.00000
     20      12.0517      0.00000
     21      13.0900      0.00000
     22      13.3442      0.00000
     23      13.7339      0.00000
     24      13.8832      0.00000

 k-point   384 :       0.5000    0.4444    0.5000
  band No.  band energies     occupation 
      1      -7.8549      1.00000
      2      -7.8549      1.00000
      3      -0.1727      1.00000
      4      -0.1727      1.00000
      5       1.0465      1.00000
      6       1.0465      1.00000
      7       1.9985      1.00000
      8       1.9985      1.00000
      9       3.3009      1.00000
     10       3.3009      1.00000
     11       3.4594      1.00000
     12       3.4594      1.00000
     13       4.4512      1.00000
     14       4.4512      1.00000
     15       4.7075      1.00000
     16       4.7075      1.00000
     17       6.1440      0.00000
     18       6.1440      0.00000
     19      11.9871      0.00000
     20      11.9871      0.00000
     21      13.2872      0.00000
     22      13.2872      0.00000
     23      13.8801      0.00000
     24      13.8801      0.00000

 k-point   385 :       0.5000    0.5000    0.5000
  band No.  band energies     occupation 
      1      -7.8408      1.00000
      2      -7.8408      1.00000
      3      -0.1815      1.00000
      4      -0.1815      1.00000
      5       1.0668      1.00000
      6       1.0668      1.00000
      7       1.9862      1.00000
      8       1.9862      1.00000
      9       3.3058      1.00000
     10       3.3058      1.00000
     11       3.4378      1.00000
     12       3.4378      1.00000
     13       4.4113      1.00000
     14       4.4113      1.00000
     15       4.6969      1.00000
     16       4.6969      1.00000
     17       6.1292      0.00000
     18       6.1292      0.00000
     19      12.0353      0.00000
     20      12.0353      0.00000
     21      13.7462      0.00000
     22      13.7462      0.00000
     23      13.8028      0.00000
     24      13.8065      0.00000


--------------------------------------------------------------------------------------------------------


 soft charge-density along one line, spin component           1
         0         1         2         3         4         5         6         7         8         9
 total charge-density along one line

 soft charge-density along one line, spin component           2
         0         1         2         3         4         5         6         7         8         9
 total charge-density along one line

 pseudopotential strength for first ion, spin component:           1
 -3.297  -0.000  -0.000  -0.000   0.000  -3.847  -0.000  -0.000
 -0.000  -3.224  -0.000   0.000   0.000  -0.000  -3.776  -0.000
 -0.000  -0.000  -3.178  -0.000   0.000  -0.000  -0.000  -3.732
 -0.000   0.000  -0.000  -3.224   0.000  -0.000   0.000  -0.000
  0.000   0.000   0.000   0.000  -3.206   0.000   0.000  -0.000
 -3.847  -0.000  -0.000  -0.000   0.000  -4.339  -0.000  -0.000
 -0.000  -3.776  -0.000   0.000   0.000  -0.000  -4.272  -0.000
 -0.000  -0.000  -3.732  -0.000  -0.000  -0.000  -0.000  -4.229
 -0.000   0.000  -0.000  -3.776   0.000  -0.000   0.000  -0.000
  0.000   0.000  -0.000   0.000  -3.759   0.000   0.000  -0.000
 -0.000   0.000  -0.008   0.000  -0.000  -0.000   0.000  -0.008
 -0.000   0.000  -0.015   0.000  -0.000  -0.000   0.000  -0.015
 -0.000   0.004  -0.000  -0.000  -0.000  -0.000   0.004  -0.000
 -0.000   0.000   0.000   0.000  -0.004  -0.000   0.000   0.000
  0.000  -0.000   0.000  -0.004   0.000   0.000  -0.000   0.000
  0.000   0.003  -0.000  -0.000  -0.000   0.000   0.003  -0.000
 -0.000   0.000   0.000   0.000  -0.003  -0.000   0.000   0.000
  0.000  -0.000   0.000  -0.003  -0.000   0.000  -0.000   0.000
 pseudopotential strength for first ion, spin component:           2
 -3.093  -0.000  -0.000  -0.000   0.000  -3.651  -0.000  -0.000
 -0.000  -3.077  -0.000   0.000   0.000  -0.000  -3.636  -0.000
 -0.000  -0.000  -3.052  -0.000   0.000  -0.000  -0.000  -3.611
 -0.000   0.000  -0.000  -3.077  -0.000  -0.000   0.000  -0.000
  0.000   0.000   0.000  -0.000  -3.057   0.000   0.000   0.000
 -3.651  -0.000  -0.000  -0.000   0.000  -4.152  -0.000  -0.000
 -0.000  -3.636  -0.000   0.000   0.000  -0.000  -4.137  -0.000
 -0.000  -0.000  -3.611  -0.000   0.000  -0.000  -0.000  -4.113
 -0.000   0.000  -0.000  -3.636  -0.000  -0.000   0.000  -0.000
  0.000   0.000  -0.000  -0.000  -3.616   0.000   0.000   0.000
 -0.000   0.000  -0.001   0.000  -0.000  -0.000   0.000  -0.001
 -0.000   0.000  -0.001   0.000   0.000  -0.000   0.000  -0.001
  0.000   0.002  -0.000   0.000  -0.000   0.000   0.003  -0.000
  0.000   0.000   0.000   0.000  -0.002   0.000   0.000   0.000
  0.000   0.000   0.000  -0.002   0.000   0.000   0.000   0.000
  0.000   0.001  -0.000   0.000  -0.000   0.000   0.002  -0.000
  0.000   0.000   0.000   0.000  -0.001   0.000   0.000   0.000
  0.000   0.000   0.000  -0.001   0.000   0.000   0.000   0.000
 total augmentation occupancy for first ion, spin component:           1
  1.479   0.000   0.000  -0.000   0.000  -0.824   0.000   0.000  -0.000  -0.000   0.000   0.000   0.000   0.000   0.000  -0.000
  0.000   2.844   0.000   0.000   0.000   0.000  -1.861  -0.000   0.000   0.000   0.000   0.000  -0.446   0.000  -0.000   0.050
  0.000   0.000   1.769   0.000   0.000   0.000   0.000  -0.588   0.000   0.000   0.203   0.005   0.000   0.000  -0.000  -0.000
  0.000   0.000   0.000   2.844   0.000   0.000   0.000   0.000  -1.861   0.000   0.000   0.000   0.000   0.000   0.446  -0.000
  0.000   0.000   0.000  -0.000   3.582  -0.000   0.000   0.000   0.000  -2.170   0.000   0.000   0.000   0.437   0.000   0.000
 -0.824   0.000   0.000   0.000   0.000   1.609   0.000   0.000   0.000   0.000   0.000   0.000   0.000  -0.000  -0.000   0.000
  0.000  -1.861   0.000   0.000   0.000   0.000   2.444   0.000   0.000   0.000   0.000   0.000   0.467   0.000   0.000  -0.052
  0.000   0.000  -0.588   0.000   0.000   0.000   0.000   1.048   0.000   0.000  -0.174   0.002  -0.000   0.000   0.000  -0.000
 -0.000   0.000   0.000  -1.861  -0.000   0.000   0.000   0.000   2.444   0.000   0.000   0.000   0.000   0.000  -0.467   0.000
 -0.000   0.000   0.000   0.000  -2.170   0.000   0.000   0.000   0.000   2.481   0.000   0.000   0.000  -0.478   0.000   0.000
  0.000   0.000   0.203   0.000   0.000   0.000   0.000  -0.174   0.000   0.000   1.849  -0.214   0.000   0.000   0.000   0.000
  0.000  -0.000   0.005   0.000   0.000   0.000   0.000   0.002   0.000   0.000  -0.214   0.045   0.000   0.000  -0.000   0.000
  0.000  -0.446   0.000   0.000   0.000   0.000   0.467  -0.000   0.000   0.000   0.000   0.000   0.304   0.000   0.000  -0.025
  0.000   0.000   0.000   0.000   0.437   0.000   0.000   0.000   0.000  -0.478   0.000   0.000   0.000   0.265   0.000   0.000
 -0.000  -0.000  -0.000   0.446  -0.000  -0.000   0.000   0.000  -0.467   0.000   0.000   0.000   0.000   0.000   0.304   0.000
 -0.000   0.050   0.000   0.000   0.000   0.000  -0.052  -0.000   0.000   0.000   0.000   0.000  -0.025   0.000   0.000   0.003
  0.000  -0.000   0.000   0.000  -0.048   0.000   0.000   0.000   0.000   0.049   0.000   0.000   0.000  -0.022   0.000   0.000
  0.000   0.000   0.000  -0.050  -0.000   0.000   0.000   0.000   0.052   0.000   0.000  -0.000   0.000   0.000  -0.025   0.000
 total augmentation occupancy for first ion, spin component:           2
  0.450   0.000   0.000  -0.000   0.000  -0.221   0.000   0.000   0.000  -0.000   0.000   0.000   0.000  -0.000   0.000   0.000
  0.000   0.184   0.000   0.000   0.000   0.000  -0.081  -0.000   0.000  -0.000   0.000   0.000  -0.005   0.000   0.000  -0.001
  0.000  -0.000   0.126   0.000   0.000   0.000   0.000  -0.059   0.000   0.000   0.005   0.000   0.000   0.000   0.000   0.000
  0.000   0.000   0.000   0.184  -0.000   0.000   0.000   0.000  -0.081  -0.000   0.000   0.000  -0.000   0.000   0.005   0.000
  0.000   0.000   0.000   0.000   0.238   0.000   0.000   0.000  -0.000  -0.116   0.000   0.000   0.000   0.030   0.000   0.000
 -0.221   0.000   0.000   0.000   0.000   0.079   0.000   0.000   0.000   0.000   0.000   0.000  -0.000   0.000   0.000   0.000
  0.000  -0.081   0.000   0.000  -0.000   0.000   0.014   0.000   0.000   0.000   0.000   0.000   0.003   0.000  -0.000   0.000
  0.000   0.000  -0.059   0.000   0.000   0.000   0.000   0.010   0.000   0.000  -0.001  -0.001   0.000   0.000   0.000  -0.000
 -0.000   0.000   0.000  -0.081   0.000   0.000   0.000   0.000   0.014   0.000  -0.000   0.000  -0.000   0.000  -0.003   0.000
  0.000  -0.000   0.000   0.000  -0.116   0.000   0.000   0.000   0.000   0.036   0.000   0.000   0.000  -0.016   0.000   0.000
  0.000   0.000   0.005   0.000   0.000   0.000   0.000  -0.001  -0.000   0.000  -0.021   0.009   0.000   0.000   0.000   0.000
  0.000   0.000   0.000   0.000   0.000   0.000   0.000  -0.001  -0.000   0.000   0.009  -0.001   0.000   0.000   0.000   0.000
  0.000  -0.005   0.000  -0.000   0.000  -0.000   0.003   0.000  -0.000   0.000   0.000   0.000  -0.001   0.000   0.000   0.000
 -0.000   0.000   0.000   0.000   0.030  -0.000   0.000   0.000   0.000  -0.016   0.000   0.000   0.000   0.004   0.000   0.000
  0.000   0.000   0.000   0.005   0.000   0.000  -0.000   0.000  -0.003   0.000   0.000   0.000   0.000   0.000  -0.001   0.000
  0.000  -0.001   0.000   0.000   0.000   0.000   0.000  -0.000  -0.000   0.000   0.000   0.000   0.000   0.000   0.000  -0.000
 -0.000   0.000   0.000   0.000   0.002   0.000   0.000   0.000   0.000  -0.001   0.000   0.000   0.000   0.000  -0.000   0.000
  0.000   0.000   0.000   0.001   0.000  -0.000  -0.000   0.000  -0.000   0.000   0.000   0.000   0.000   0.000   0.000   0.000


------------------------ aborting loop because EDIFF is reached ----------------------------------------





 total charge     

# of ion     s       p       d       tot
----------------------------------------
  1        0.408   0.504   7.461   8.373
  2        0.408   0.504   7.461   8.373
  3        1.499   2.330   0.091   3.919
  4        1.499   2.330   0.091   3.919
------------------------------------------------
tot        3.815   5.667  15.104  24.585



 magnetization (x)

# of ion     s       p       d       tot
----------------------------------------
  1        0.002   0.003   0.197   0.201
  2        0.002   0.003   0.197   0.201
  3        0.001   0.012   0.001   0.013
  4        0.001   0.012   0.001   0.013
------------------------------------------------
tot        0.005   0.030   0.395   0.429

    CHARGE:  cpu time    1.1640: real time    1.1621
    FORLOC:  cpu time    0.0000: real time    0.0015
    FORNL :  cpu time    3.2840: real time    3.2830
    STRESS:  cpu time   10.7400: real time   10.7340
    FORCOR:  cpu time    3.2560: real time    3.2546
    FORHAR:  cpu time    0.0120: real time    0.0117
    MIXING:  cpu time    0.0000: real time    0.0036
    OFIELD:  cpu time    0.0000: real time    0.0000

  FORCE on cell =-STRESS in cart. coord.  units (eV):
  Direction    XX          YY          ZZ          XY          YZ          ZX
  --------------------------------------------------------------------------------------
  Alpha Z    87.43860    87.43860    87.43860
  Ewald    -185.43153  -185.43153 -1128.26183     0.00000     0.00000     0.00000
  Hartree   499.56639   499.56639  -254.16724    -0.00000    -0.00000    -0.00000
  E(xc)    -139.23846  -139.23846  -139.30878     0.00000     0.00000     0.00000
  Local    -932.94565  -932.94565   757.66417     0.00000    -0.00000     0.00000
  n-local    71.88796    69.33993    72.10753     0.96211    -0.30633     0.42905
  augment   303.28439   303.28439   305.07641     0.00000    -0.00000     0.00000
  Kinetic   300.14682   293.29950   299.36419    -1.30681     0.48962     1.71691
  Fock        0.00000     0.00000     0.00000     0.00000     0.00000     0.00000
  -------------------------------------------------------------------------------------
  Total       0.01086     0.01086    -0.08695     0.00000     0.00000     0.00000
  in kB       0.24105     0.24105    -1.93014     0.00000     0.00000     0.00000
  external pressure =       -0.48 kB  Pullay stress =        0.00 kB


 VOLUME and BASIS-vectors are now :
 -----------------------------------------------------------------------------
  energy-cutoff  :      780.00
  volume of cell :       72.18
      direct lattice vectors                 reciprocal lattice vectors
     3.641835000  0.000000000  0.000000000     0.274586850  0.000000000  0.000000000
     0.000000000  3.641835000  0.000000000     0.000000000  0.274586850  0.000000000
     0.000000000  0.000000000  5.441973000     0.000000000  0.000000000  0.183756884

  length of vectors
     3.641835000  3.641835000  5.441973000     0.274586850  0.274586850  0.183756884


 FORCES acting on ions
    electron-ion (+dipol)            ewald-force                    non-local-force                 convergence-correction
 -----------------------------------------------------------------------------------------------
   -.625E-14 0.411E-13 0.653E-12   0.161E-14 0.884E-14 0.000E+00   0.000E+00 -.867E-18 0.000E+00   0.405E-13 -.129E-13 0.559E-13
   0.421E-12 0.295E-11 -.137E-11   -.955E-15 -.806E-14 0.000E+00   0.000E+00 0.173E-17 0.000E+00   0.171E-13 0.488E-13 0.589E-13
   0.300E-14 0.479E-13 0.268E+03   0.297E-14 0.749E-14 -.270E+03   0.000E+00 -.104E-16 0.225E+01   0.356E-15 -.166E-15 -.235E-05
   0.435E-14 -.364E-13 -.268E+03   -.697E-14 -.636E-14 0.270E+03   0.000E+00 -.347E-17 -.225E+01   0.395E-15 0.598E-14 0.235E-05
 -----------------------------------------------------------------------------------------------
   0.422E-12 0.300E-11 -.952E-12   -.335E-14 0.191E-14 0.000E+00   0.000E+00 -.130E-16 0.000E+00   0.583E-13 0.417E-13 0.103E-12


 POSITION                                       TOTAL-FORCE (eV/Angst)
 -----------------------------------------------------------------------------------
      0.00000      0.00000      0.00000        -0.000000     -0.000000      0.000000
      1.82092      1.82092      0.00000         0.000000      0.000000      0.000000
      1.82092      0.00000      4.00419        -0.000000     -0.000000      0.020670
      0.00000      1.82092      1.43778        -0.000000      0.000000     -0.020670
 -----------------------------------------------------------------------------------
    total drift:                                0.000000      0.000000     -0.000000


--------------------------------------------------------------------------------------------------------



  FREE ENERGIE OF THE ION-ELECTRON SYSTEM (eV)
  ---------------------------------------------------
  free  energy   TOTEN  =       -13.47451434 eV

  energy  without entropy=      -13.47416803  energy(sigma->0) =      -13.47434119



--------------------------------------------------------------------------------------------------------


    POTLOK:  cpu time    3.1200: real time    3.1185

 Electric field gradients (V/A^2)
---------------------------------------------------------------------
 ion       V_xx      V_yy      V_zz      V_xy      V_xz      V_yz
---------------------------------------------------------------------
   1      -4.766    -4.766     9.532     0.000    -0.000    -0.000
   2      -4.766    -4.766     9.532    -0.000     0.000    -0.000
   3      35.231    35.231   -70.461     0.000     0.000     0.000
   4      35.231    35.231   -70.461     0.000     0.000     0.000
---------------------------------------------------------------------


 Electric field gradients after diagonalization (V/A^2)
 (convention: |V_zz| > |V_xx| > |V_yy|)
----------------------------------------------------------------------
 ion       V_xx      V_yy      V_zz     asymmetry (V_yy - V_xx)/ V_zz 
----------------------------------------------------------------------
   1      -4.766    -4.766     9.532       0.000
   2      -4.766    -4.766     9.532       0.000
   3      35.231    35.231   -70.461       0.000
   4      35.231    35.231   -70.461       0.000
----------------------------------------------------------------------


 Eigenvectors
----------------------------------------------------------------------

 ion   1
 xx       1.000    -0.001     0.000
 yy      -0.001    -1.000    -0.000
 zz      -0.000    -0.000     1.000


 ion   2
 xx       1.000     0.008     0.000
 yy       0.008    -1.000    -0.000
 zz       0.000    -0.000     1.000


 ion   3
 xx       1.000     0.001     0.000
 yy       0.001    -1.000    -0.000
 zz      -0.000    -0.000     1.000


 ion   4
 xx       1.000     0.009     0.000
 yy       0.009    -1.000    -0.000
 zz      -0.000    -0.000     1.000


----------------------------------------------------------------------

           NMR quadrupolar parameters
 
 Cq : quadrupolar parameter    Cq=e*Q*V_zz/h
 eta: asymmetry parameters     (V_yy - V_xx)/ V_zz
 Q  : nuclear electric quadrupole moment in mb (millibarn)
----------------------------------------------------------------------
 ion       Cq(MHz)       eta       Q (mb) 
----------------------------------------------------------------------
   1       0.023       0.000       1.000
   2       0.023       0.000       1.000
   3      -0.170       0.000       1.000
   4      -0.170       0.000       1.000
----------------------------------------------------------------------



--------------------------------------------------------------------------------------------------------


     LOOP+:  cpu time  881.2560: real time  881.5562
    4ORBIT:  cpu time    0.0000: real time    0.0000



 total charge     

# of ion     s       p       d       tot
----------------------------------------
  1        0.408   0.504   7.461   8.373
  2        0.408   0.504   7.461   8.373
  3        1.499   2.330   0.091   3.919
  4        1.499   2.330   0.091   3.919
------------------------------------------------
tot        3.815   5.667  15.104  24.585



 magnetization (x)

# of ion     s       p       d       tot
----------------------------------------
  1        0.002   0.003   0.197   0.201
  2        0.002   0.003   0.197   0.201
  3        0.001   0.012   0.001   0.013
  4        0.001   0.012   0.001   0.013
------------------------------------------------
tot        0.005   0.030   0.395   0.429


 total amount of memory used by VASP on root node   205284. kBytes
========================================================================

   base      :      30000. kBytes
   nonl-proj :     100737. kBytes
   fftplans  :       1687. kBytes
   grid      :       4232. kBytes
   one-center:         31. kBytes
   wavefun   :      68597. kBytes

  
  
 General timing and accounting informations for this job:
 ========================================================
  
                  Total CPU time used (sec):      892.188
                            User time (sec):      843.240
                          System time (sec):       48.948
                         Elapsed time (sec):      895.404
  
                   Maximum memory used (kb):      303496.
                   Average memory used (kb):           0.
  
                          Minor page faults:     22337405
                          Major page faults:            5
                 Voluntary context switches:         1822
