 vasp.5.4.4.18Apr17-6-g9f103f2a35 (build Nov  5 2018 08:43:33) complex           
 executed on             LinuxGNU date 2018.12.22  21:24:16
 running on   16 total cores
 distrk:  each k-point on   16 cores,    1 groups
 distr:  one band on NCORES_PER_BAND=   1 cores,   16 groups


--------------------------------------------------------------------------------------------------------


 INCAR:
 POTCAR:    PAW_PBE Al 04Jan2001                  
 POTCAR:    PAW_PBE N 08Apr2002                   

 ----------------------------------------------------------------------------- 
|                                                                             |
|           W    W    AA    RRRRR   N    N  II  N    N   GGGG   !!!           |
|           W    W   A  A   R    R  NN   N  II  NN   N  G    G  !!!           |
|           W    W  A    A  R    R  N N  N  II  N N  N  G       !!!           |
|           W WW W  AAAAAA  RRRRR   N  N N  II  N  N N  G  GGG   !            |
|           WW  WW  A    A  R   R   N   NN  II  N   NN  G    G                |
|           W    W  A    A  R    R  N    N  II  N    N   GGGG   !!!           |
|                                                                             |
|      For optimal performance we recommend to set                            |
|        NCORE= 4 - approx SQRT( number of cores)                             |
|      NCORE specifies how many cores store one orbital (NPAR=cpu/NCORE).     |
|      This setting can  greatly improve the performance of VASP for DFT.     |
|      The default,   NCORE=1            might be grossly inefficient         |
|      on modern multi-core architectures or massively parallel machines.     |
|      Do your own testing !!!!                                               |
|      Unfortunately you need to use the default for GW and RPA calculations. |
|      (for HF NCORE is supported but not extensively tested yet)             |
|                                                                             |
 ----------------------------------------------------------------------------- 


 ----------------------------------------------------------------------------- 
|                                                                             |
|  ADVICE TO THIS USER RUNNING 'VASP/VAMP'   (HEAR YOUR MASTER'S VOICE ...):  |
|                                                                             |
|      You have switched on vdW-DFT.                                          |
|      This routine was written and supplied by Jiri Klimes.                  |
|      We recommed that you carefully read and cite the following             |
|      publication                                                            |
|      J. Klimes, D.R. Bowler, A. Michelides                                  |
|        J. Phys.: Cond Matt. 22 022201 (2010)                                |
|      J. Klimes, D.R. Bowler, A. Michelides                                  |
|        Phys. Rev. B. 83, 195131 (2011)                                      |
|      and references therein.                                                |
|                                                                             |
 ----------------------------------------------------------------------------- 

 POTCAR:    PAW_PBE Al 04Jan2001                  
   VRHFIN =Al: s2p1                                                             
   LEXCH  = PE                                                                  
   EATOM  =    53.5387 eV,    3.9350 Ry                                         
                                                                                
   TITEL  = PAW_PBE Al 04Jan2001                                                
   LULTRA =        F    use ultrasoft PP ?                                      
   IUNSCR =        1    unscreen: 0-lin 1-nonlin 2-no                           
   RPACOR =    1.500    partial core radius                                     
   POMASS =   26.981; ZVAL   =    3.000    mass and valenz                      
   RCORE  =    1.900    outmost cutoff radius                                   
   RWIGS  =    2.650; RWIGS  =    1.402    wigner-seitz radius (au A)           
   ENMAX  =  240.300; ENMIN  =  180.225 eV                                      
   ICORE  =        2    local potential                                         
   LCOR   =        T    correct aug charges                                     
   LPAW   =        T    paw PP                                                  
   EAUG   =  291.052                                                            
   DEXC   =    0.000                                                            
   RMAX   =    1.939    core radius for proj-oper                               
   RAUG   =    1.300    factor for augmentation sphere                          
   RDEP   =    1.966    radius for radial grids                                 
   RDEPT  =    1.856    core radius for aug-charge                              
                                                                                
   Atomic configuration                                                         
    6 entries                                                                   
     n  l   j            E        occ.                                          
     1  0  0.50     -1511.1048   2.0000                                         
     2  0  0.50      -108.1629   2.0000                                         
     2  1  1.50       -69.6402   6.0000                                         
     3  0  0.50        -7.7528   2.0000                                         
     3  1  1.50        -2.7121   1.0000                                         
     3  2  2.50        -2.7212   0.0000                                         
   Description                                                                  
     l       E           TYP  RCUT    TYP  RCUT                                 
     0     -7.7528455     23  1.900                                             
     0     -3.3096929     23  1.900                                             
     1     -2.7120682     23  1.900                                             
     1     13.6058260     23  1.900                                             
     2     -2.7211652      7  1.900                                             
  local pseudopotential read in
  partial core-charges read in
  partial kinetic energy density read in
  atomic valenz-charges read in
  non local Contribution for L=           0  read in
    real space projection operators read in
  non local Contribution for L=           0  read in
    real space projection operators read in
  non local Contribution for L=           1  read in
    real space projection operators read in
  non local Contribution for L=           1  read in
    real space projection operators read in
    PAW grid and wavefunctions read in

   number of l-projection  operators is LMAX  =           4
   number of lm-projection operators is LMMAX =           8

 POTCAR:    PAW_PBE N 08Apr2002                   
   VRHFIN =N: s2p3                                                              
   LEXCH  = PE                                                                  
   EATOM  =   264.5486 eV,   19.4438 Ry                                         
                                                                                
   TITEL  = PAW_PBE N 08Apr2002                                                 
   LULTRA =        F    use ultrasoft PP ?                                      
   IUNSCR =        1    unscreen: 0-lin 1-nonlin 2-no                           
   RPACOR =    1.200    partial core radius                                     
   POMASS =   14.001; ZVAL   =    5.000    mass and valenz                      
   RCORE  =    1.500    outmost cutoff radius                                   
   RWIGS  =    1.400; RWIGS  =    0.741    wigner-seitz radius (au A)           
   ENMAX  =  400.000; ENMIN  =  300.000 eV                                      
   ICORE  =        2    local potential                                         
   LCOR   =        T    correct aug charges                                     
   LPAW   =        T    paw PP                                                  
   EAUG   =  627.112                                                            
   DEXC   =    0.000                                                            
   RMAX   =    1.529    core radius for proj-oper                               
   RAUG   =    1.300    factor for augmentation sphere                          
   RDEP   =    1.514    radius for radial grids                                 
   RDEPT  =    1.338    core radius for aug-charge                              
                                                                                
   Atomic configuration                                                         
    4 entries                                                                   
     n  l   j            E        occ.                                          
     1  0  0.50      -384.7179   2.0000                                         
     2  0  0.50       -18.5828   2.0000                                         
     2  1  0.50        -7.0898   3.0000                                         
     3  2  1.50        -6.8029   0.0000                                         
   Description                                                                  
     l       E           TYP  RCUT    TYP  RCUT                                 
     0    -18.5828119     23  1.200                                             
     0    -13.5018863     23  1.200                                             
     1     -7.0897853     23  1.500                                             
     1      9.5240782     23  1.500                                             
     2     -6.8029130      7  1.500                                             
  local pseudopotential read in
  partial core-charges read in
  partial kinetic energy density read in
  atomic valenz-charges read in
  non local Contribution for L=           0  read in
    real space projection operators read in
  non local Contribution for L=           0  read in
    real space projection operators read in
  non local Contribution for L=           1  read in
    real space projection operators read in
  non local Contribution for L=           1  read in
    real space projection operators read in
    PAW grid and wavefunctions read in

   number of l-projection  operators is LMAX  =           4
   number of lm-projection operators is LMMAX =           8


 ----------------------------------------------------------------------------- 
|                                                                             |
|  ADVICE TO THIS USER RUNNING 'VASP/VAMP'   (HEAR YOUR MASTER'S VOICE ...):  |
|                                                                             |
|      You enforced a specific xc-type in the INCAR file,                     |
|      a different type was found on the POTCAR file                          |
|          I HOPE YOU KNOW, WHAT YOU ARE  DOING                               |
|                                                                             |
 ----------------------------------------------------------------------------- 

  PAW_PBE Al 04Jan2001                  :
 energy of atom  1       EATOM=  -53.5387
 kinetic energy error for atom=    0.0001 (will be added to EATOM!!)
  PAW_PBE N 08Apr2002                   :
 energy of atom  2       EATOM= -264.5486
 kinetic energy error for atom=    0.0021 (will be added to EATOM!!)


 POSCAR: bulk@JVASP-39_mp-661                    
  positions in direct lattice
  No initial velocities read in
 exchange correlation table for  LEXCH =       42
   RHO(1)=    0.500       N(1)  =     2000
   RHO(2)=  100.500       N(2)  =     4000



--------------------------------------------------------------------------------------------------------


 ion  position               nearest neighbor table
   1  0.333  0.667  0.501-   4 1.90   4 1.90   4 1.90   3 1.91   2 3.09   2 3.09   2 3.09   2 3.09
                             2 3.09   2 3.09
   2  0.667  0.333  0.001-   3 1.90   3 1.90   3 1.90   4 1.91   1 3.09   1 3.09   1 3.09   1 3.09
                             1 3.09   1 3.09
   3  0.333  0.667  0.119-   2 1.90   2 1.90   2 1.90   1 1.91
   4  0.667  0.333  0.619-   1 1.90   1 1.90   1 1.90   2 1.91

  LATTYP: Found a hexagonal cell.
 ALAT       =     3.1300440000
 C/A-ratio  =     1.6042116341
  
  Lattice vectors:
  
 A1 = (   1.5650220000,  -2.7106980000,   0.0000000000)
 A2 = (   1.5650220000,   2.7106980000,   0.0000000000)
 A3 = (   0.0000000000,   0.0000000000,   5.0212530000)


Analysis of symmetry for initial positions (statically):
=====================================================================
 Subroutine PRICEL returns:
 Original cell was already a primitive cell.
 

 Routine SETGRP: Setting up the symmetry group for a 
 hexagonal supercell.


 Subroutine GETGRP returns: Found 12 space group operations
 (whereof  6 operations were pure point group operations)
 out of a pool of 24 trial point group operations.


The static configuration has the point symmetry C_3v.
 The point group associated with its full space group is C_6v.


Analysis of symmetry for dynamics (positions and initial velocities):
=====================================================================
 Subroutine PRICEL returns:
 Original cell was already a primitive cell.
 

 Routine SETGRP: Setting up the symmetry group for a 
 hexagonal supercell.


 Subroutine GETGRP returns: Found 12 space group operations
 (whereof  6 operations were pure point group operations)
 out of a pool of 24 trial point group operations.


The dynamic configuration has the point symmetry C_3v.
 The point group associated with its full space group is C_6v.


 Subroutine INISYM returns: Found 12 space group operations
 (whereof  6 operations are pure point group operations),
 and found     1 'primitive' translations



 irot  :   1
 --------------------------------------------------------------------
 isymop:   1   0   0
           0   1   0
           0   0   1

 gtrans:     0.0000000     0.0000000     0.0000000

 ptrans:     0.0000000     0.0000000     0.0000000

 rotmap:
 (   1->   1)  (   2->   2)  (   3->   3)  (   4->   4) 


 irot  :   2
 --------------------------------------------------------------------
 isymop:   0  -1   0
           1  -1   0
           0   0   1

 gtrans:     0.0000000     0.0000000     0.0000000

 ptrans:     0.0000000     0.0000000     0.0000000

 rotmap:
 (   1->   1)  (   2->   2)  (   3->   3)  (   4->   4) 


 irot  :   3
 --------------------------------------------------------------------
 isymop:  -1   1   0
          -1   0   0
           0   0   1

 gtrans:     0.0000000     0.0000000     0.0000000

 ptrans:     0.0000000     0.0000000     0.0000000

 rotmap:
 (   1->   1)  (   2->   2)  (   3->   3)  (   4->   4) 


 irot  :   4
 --------------------------------------------------------------------
 isymop:  -1   1   0
           0   1   0
           0   0   1

 gtrans:     0.0000000     0.0000000     0.0000000

 ptrans:     0.0000000     0.0000000     0.0000000

 rotmap:
 (   1->   1)  (   2->   2)  (   3->   3)  (   4->   4) 


 irot  :   5
 --------------------------------------------------------------------
 isymop:   1   0   0
           1  -1   0
           0   0   1

 gtrans:     0.0000000     0.0000000     0.0000000

 ptrans:     0.0000000     0.0000000     0.0000000

 rotmap:
 (   1->   1)  (   2->   2)  (   3->   3)  (   4->   4) 


 irot  :   6
 --------------------------------------------------------------------
 isymop:   0  -1   0
          -1   0   0
           0   0   1

 gtrans:     0.0000000     0.0000000     0.0000000

 ptrans:     0.0000000     0.0000000     0.0000000

 rotmap:
 (   1->   1)  (   2->   2)  (   3->   3)  (   4->   4) 


 irot  :   7
 --------------------------------------------------------------------
 isymop:   1  -1   0
           1   0   0
           0   0   1

 gtrans:     0.0000010     0.0000000     0.5000000

 ptrans:     0.0000000     0.0000000     0.0000000

 rotmap:
 (   1->   2)  (   2->   1)  (   3->   4)  (   4->   3) 


 irot  :   8
 --------------------------------------------------------------------
 isymop:  -1   0   0
           0  -1   0
           0   0   1

 gtrans:     0.0000000     0.0000000     0.5000000

 ptrans:     0.0000000     0.0000000     0.0000000

 rotmap:
 (   1->   2)  (   2->   1)  (   3->   4)  (   4->   3) 


 irot  :   9
 --------------------------------------------------------------------
 isymop:   0   1   0
          -1   1   0
           0   0   1

 gtrans:     0.0000000     0.0000000     0.5000000

 ptrans:     0.0000000     0.0000000     0.0000000

 rotmap:
 (   1->   2)  (   2->   1)  (   3->   4)  (   4->   3) 


 irot  :  10
 --------------------------------------------------------------------
 isymop:   0   1   0
           1   0   0
           0   0   1

 gtrans:     0.0000000     0.0000000     0.5000000

 ptrans:     0.0000000     0.0000000     0.0000000

 rotmap:
 (   1->   2)  (   2->   1)  (   3->   4)  (   4->   3) 


 irot  :  11
 --------------------------------------------------------------------
 isymop:   1  -1   0
           0  -1   0
           0   0   1

 gtrans:     0.0000010     0.0000000     0.5000000

 ptrans:     0.0000000     0.0000000     0.0000000

 rotmap:
 (   1->   2)  (   2->   1)  (   3->   4)  (   4->   3) 


 irot  :  12
 --------------------------------------------------------------------
 isymop:  -1   0   0
          -1   1   0
           0   0   1

 gtrans:     0.0000000     0.0000000     0.5000000

 ptrans:     0.0000000     0.0000000     0.0000000

 rotmap:
 (   1->   2)  (   2->   1)  (   3->   4)  (   4->   3) 


 KPOINTS: Automatic kpoint scheme                 

Automatic generation of k-mesh.
Space group operators:
 irot       det(A)        alpha          n_x          n_y          n_z        tau_x        tau_y        tau_z
    1     1.000000     0.000000     1.000000     0.000000     0.000000     0.000000     0.000000     0.000000
    2     1.000000   120.000000     0.000000     0.000000    -1.000000     0.000000     0.000000     0.000000
    3     1.000000   120.000000     0.000000     0.000000     1.000000     0.000000     0.000000     0.000000
    4    -1.000000   180.000000     0.500000    -0.866025     0.000000     0.000000     0.000000     0.000000
    5    -1.000000   180.000000    -0.500000    -0.866025     0.000000     0.000000     0.000000     0.000000
    6    -1.000000   180.000000     1.000000     0.000000     0.000000     0.000000     0.000000     0.000000
    7     1.000000    60.000000     0.000000     0.000000    -1.000000     0.000001     0.000000     0.500000
    8     1.000000   180.000000     0.000000     0.000000     1.000000     0.000000     0.000000     0.500000
    9     1.000000    60.000000     0.000000     0.000000     1.000000     0.000000     0.000000     0.500000
   10    -1.000000   180.000000     0.000000     1.000000     0.000000     0.000000     0.000000     0.500000
   11    -1.000000   180.000000     0.866025     0.500000     0.000000     0.000001     0.000000     0.500000
   12    -1.000000   180.000000     0.866025    -0.500000     0.000000     0.000000     0.000000     0.500000
 
 Subroutine IBZKPT returns following result:
 ===========================================
 
 Found     36 irreducible k-points:
 
 Following reciprocal coordinates:
            Coordinates               Weight
  0.000000  0.000000  0.000000      1.000000
  0.111111  0.000000  0.000000      6.000000
  0.222222  0.000000  0.000000      6.000000
  0.333333  0.000000  0.000000      6.000000
  0.444444  0.000000  0.000000      6.000000
  0.111111  0.111111  0.000000      6.000000
  0.222222  0.111111  0.000000     12.000000
  0.333333  0.111111  0.000000     12.000000
  0.444444  0.111111  0.000000      6.000000
  0.222222  0.222222  0.000000      6.000000
  0.333333  0.222222  0.000000     12.000000
  0.333333  0.333333  0.000000      2.000000
  0.000000  0.000000  0.200000      2.000000
  0.111111  0.000000  0.200000     12.000000
  0.222222  0.000000  0.200000     12.000000
  0.333333  0.000000  0.200000     12.000000
  0.444444  0.000000  0.200000     12.000000
  0.111111  0.111111  0.200000     12.000000
  0.222222  0.111111  0.200000     24.000000
  0.333333  0.111111  0.200000     24.000000
  0.444444  0.111111  0.200000     12.000000
  0.222222  0.222222  0.200000     12.000000
  0.333333  0.222222  0.200000     24.000000
  0.333333  0.333333  0.200000      4.000000
  0.000000  0.000000  0.400000      2.000000
  0.111111  0.000000  0.400000     12.000000
  0.222222  0.000000  0.400000     12.000000
  0.333333  0.000000  0.400000     12.000000
  0.444444  0.000000  0.400000     12.000000
  0.111111  0.111111  0.400000     12.000000
  0.222222  0.111111  0.400000     24.000000
  0.333333  0.111111  0.400000     24.000000
  0.444444  0.111111  0.400000     12.000000
  0.222222  0.222222  0.400000     12.000000
  0.333333  0.222222  0.400000     24.000000
  0.333333  0.333333  0.400000      4.000000
 
 Following cartesian coordinates:
            Coordinates               Weight
  0.000000  0.000000  0.000000      1.000000
  0.035498 -0.020495  0.000000      6.000000
  0.070997 -0.040990  0.000000      6.000000
  0.106495 -0.061485  0.000000      6.000000
  0.141993 -0.081980  0.000000      6.000000
  0.070997  0.000000  0.000000      6.000000
  0.106495 -0.020495  0.000000     12.000000
  0.141993 -0.040990  0.000000     12.000000
  0.177491 -0.061485  0.000000      6.000000
  0.141993  0.000000  0.000000      6.000000
  0.177491 -0.020495  0.000000     12.000000
  0.212990  0.000000  0.000000      2.000000
  0.000000  0.000000  0.039831      2.000000
  0.035498 -0.020495  0.039831     12.000000
  0.070997 -0.040990  0.039831     12.000000
  0.106495 -0.061485  0.039831     12.000000
  0.141993 -0.081980  0.039831     12.000000
  0.070997  0.000000  0.039831     12.000000
  0.106495 -0.020495  0.039831     24.000000
  0.141993 -0.040990  0.039831     24.000000
  0.177491 -0.061485  0.039831     12.000000
  0.141993  0.000000  0.039831     12.000000
  0.177491 -0.020495  0.039831     24.000000
  0.212990  0.000000  0.039831      4.000000
  0.000000  0.000000  0.079661      2.000000
  0.035498 -0.020495  0.079661     12.000000
  0.070997 -0.040990  0.079661     12.000000
  0.106495 -0.061485  0.079661     12.000000
  0.141993 -0.081980  0.079661     12.000000
  0.070997  0.000000  0.079661     12.000000
  0.106495 -0.020495  0.079661     24.000000
  0.141993 -0.040990  0.079661     24.000000
  0.177491 -0.061485  0.079661     12.000000
  0.141993  0.000000  0.079661     12.000000
  0.177491 -0.020495  0.079661     24.000000
  0.212990  0.000000  0.079661      4.000000
 
 
 Subroutine IBZKPT_HF returns following result:
 ==============================================
 
 Found    405 k-points in 1st BZ
 the following    405 k-points will be used (e.g. in the exchange kernel)
 Following reciprocal coordinates:   # in IRBZ
  0.000000  0.000000  0.000000    0.00246914   1 t-inv F
  0.111111  0.000000  0.000000    0.00246914   2 t-inv F
  0.222222  0.000000  0.000000    0.00246914   3 t-inv F
  0.333333  0.000000  0.000000    0.00246914   4 t-inv F
  0.444444  0.000000  0.000000    0.00246914   5 t-inv F
  0.111111  0.111111  0.000000    0.00246914   6 t-inv F
  0.222222  0.111111  0.000000    0.00246914   7 t-inv F
  0.333333  0.111111  0.000000    0.00246914   8 t-inv F
  0.444444  0.111111  0.000000    0.00246914   9 t-inv F
  0.222222  0.222222  0.000000    0.00246914  10 t-inv F
  0.333333  0.222222  0.000000    0.00246914  11 t-inv F
  0.333333  0.333333  0.000000    0.00246914  12 t-inv F
  0.000000  0.000000  0.200000    0.00246914  13 t-inv F
  0.111111  0.000000  0.200000    0.00246914  14 t-inv F
  0.222222  0.000000  0.200000    0.00246914  15 t-inv F
  0.333333  0.000000  0.200000    0.00246914  16 t-inv F
  0.444444  0.000000  0.200000    0.00246914  17 t-inv F
  0.111111  0.111111  0.200000    0.00246914  18 t-inv F
  0.222222  0.111111  0.200000    0.00246914  19 t-inv F
  0.333333  0.111111  0.200000    0.00246914  20 t-inv F
  0.444444  0.111111  0.200000    0.00246914  21 t-inv F
  0.222222  0.222222  0.200000    0.00246914  22 t-inv F
  0.333333  0.222222  0.200000    0.00246914  23 t-inv F
  0.333333  0.333333  0.200000    0.00246914  24 t-inv F
  0.000000  0.000000  0.400000    0.00246914  25 t-inv F
  0.111111  0.000000  0.400000    0.00246914  26 t-inv F
  0.222222  0.000000  0.400000    0.00246914  27 t-inv F
  0.333333  0.000000  0.400000    0.00246914  28 t-inv F
  0.444444  0.000000  0.400000    0.00246914  29 t-inv F
  0.111111  0.111111  0.400000    0.00246914  30 t-inv F
  0.222222  0.111111  0.400000    0.00246914  31 t-inv F
  0.333333  0.111111  0.400000    0.00246914  32 t-inv F
  0.444444  0.111111  0.400000    0.00246914  33 t-inv F
  0.222222  0.222222  0.400000    0.00246914  34 t-inv F
  0.333333  0.222222  0.400000    0.00246914  35 t-inv F
  0.333333  0.333333  0.400000    0.00246914  36 t-inv F
 -0.111111  0.111111  0.000000    0.00246914   2 t-inv F
  0.000000 -0.111111  0.000000    0.00246914   2 t-inv F
 -0.000000  0.111111  0.000000    0.00246914   2 t-inv F
 -0.111111 -0.000000  0.000000    0.00246914   2 t-inv F
  0.111111 -0.111111  0.000000    0.00246914   2 t-inv F
 -0.222222  0.222222  0.000000    0.00246914   3 t-inv F
  0.000000 -0.222222  0.000000    0.00246914   3 t-inv F
 -0.000000  0.222222  0.000000    0.00246914   3 t-inv F
 -0.222222 -0.000000  0.000000    0.00246914   3 t-inv F
  0.222222 -0.222222  0.000000    0.00246914   3 t-inv F
 -0.333333  0.333333  0.000000    0.00246914   4 t-inv F
  0.000000 -0.333333  0.000000    0.00246914   4 t-inv F
 -0.000000  0.333333  0.000000    0.00246914   4 t-inv F
 -0.333333 -0.000000  0.000000    0.00246914   4 t-inv F
  0.333333 -0.333333  0.000000    0.00246914   4 t-inv F
 -0.444444  0.444444  0.000000    0.00246914   5 t-inv F
  0.000000 -0.444444  0.000000    0.00246914   5 t-inv F
 -0.000000  0.444444  0.000000    0.00246914   5 t-inv F
 -0.444444 -0.000000  0.000000    0.00246914   5 t-inv F
  0.444444 -0.444444  0.000000    0.00246914   5 t-inv F
 -0.222222  0.111111  0.000000    0.00246914   6 t-inv F
  0.111111 -0.222222  0.000000    0.00246914   6 t-inv F
 -0.111111  0.222222  0.000000    0.00246914   6 t-inv F
  0.222222 -0.111111  0.000000    0.00246914   6 t-inv F
 -0.111111 -0.111111  0.000000    0.00246914   6 t-inv F
 -0.333333  0.222222  0.000000    0.00246914   7 t-inv F
  0.111111 -0.333333  0.000000    0.00246914   7 t-inv F
 -0.222222  0.333333  0.000000    0.00246914   7 t-inv F
  0.333333 -0.111111  0.000000    0.00246914   7 t-inv F
 -0.111111 -0.222222  0.000000    0.00246914   7 t-inv F
 -0.111111  0.333333  0.000000    0.00246914   7 t-inv F
 -0.222222 -0.111111  0.000000    0.00246914   7 t-inv F
  0.333333 -0.222222  0.000000    0.00246914   7 t-inv F
  0.111111  0.222222  0.000000    0.00246914   7 t-inv F
  0.222222 -0.333333  0.000000    0.00246914   7 t-inv F
 -0.333333  0.111111  0.000000    0.00246914   7 t-inv F
 -0.444444  0.333333  0.000000    0.00246914   8 t-inv F
  0.111111 -0.444444  0.000000    0.00246914   8 t-inv F
 -0.333333  0.444444  0.000000    0.00246914   8 t-inv F
  0.444444 -0.111111  0.000000    0.00246914   8 t-inv F
 -0.111111 -0.333333  0.000000    0.00246914   8 t-inv F
 -0.111111  0.444444  0.000000    0.00246914   8 t-inv F
 -0.333333 -0.111111  0.000000    0.00246914   8 t-inv F
  0.444444 -0.333333  0.000000    0.00246914   8 t-inv F
  0.111111  0.333333  0.000000    0.00246914   8 t-inv F
  0.333333 -0.444444  0.000000    0.00246914   8 t-inv F
 -0.444444  0.111111  0.000000    0.00246914   8 t-inv F
 -0.555556  0.444444  0.000000    0.00246914   9 t-inv F
  0.111111 -0.555556  0.000000    0.00246914   9 t-inv F
 -0.444444  0.555556  0.000000    0.00246914   9 t-inv F
  0.555556 -0.111111  0.000000    0.00246914   9 t-inv F
 -0.111111 -0.444444  0.000000    0.00246914   9 t-inv F
 -0.444444  0.222222  0.000000    0.00246914  10 t-inv F
  0.222222 -0.444444  0.000000    0.00246914  10 t-inv F
 -0.222222  0.444444  0.000000    0.00246914  10 t-inv F
  0.444444 -0.222222  0.000000    0.00246914  10 t-inv F
 -0.222222 -0.222222  0.000000    0.00246914  10 t-inv F
 -0.555556  0.333333  0.000000    0.00246914  11 t-inv F
  0.222222 -0.555556  0.000000    0.00246914  11 t-inv F
 -0.333333  0.555556  0.000000    0.00246914  11 t-inv F
  0.555556 -0.222222  0.000000    0.00246914  11 t-inv F
 -0.222222 -0.333333  0.000000    0.00246914  11 t-inv F
 -0.222222  0.555556  0.000000    0.00246914  11 t-inv F
 -0.333333 -0.222222  0.000000    0.00246914  11 t-inv F
  0.555556 -0.333333  0.000000    0.00246914  11 t-inv F
  0.222222  0.333333  0.000000    0.00246914  11 t-inv F
  0.333333 -0.555556  0.000000    0.00246914  11 t-inv F
 -0.555556  0.222222  0.000000    0.00246914  11 t-inv F
 -0.333333  0.666667  0.000000    0.00246914  12 t-inv F
 -0.111111  0.111111  0.200000    0.00246914  14 t-inv F
  0.000000 -0.111111  0.200000    0.00246914  14 t-inv F
 -0.000000  0.111111  0.200000    0.00246914  14 t-inv F
 -0.111111 -0.000000  0.200000    0.00246914  14 t-inv F
  0.111111 -0.111111  0.200000    0.00246914  14 t-inv F
 -0.222222  0.222222  0.200000    0.00246914  15 t-inv F
  0.000000 -0.222222  0.200000    0.00246914  15 t-inv F
 -0.000000  0.222222  0.200000    0.00246914  15 t-inv F
 -0.222222 -0.000000  0.200000    0.00246914  15 t-inv F
  0.222222 -0.222222  0.200000    0.00246914  15 t-inv F
 -0.333333  0.333333  0.200000    0.00246914  16 t-inv F
  0.000000 -0.333333  0.200000    0.00246914  16 t-inv F
 -0.000000  0.333333  0.200000    0.00246914  16 t-inv F
 -0.333333 -0.000000  0.200000    0.00246914  16 t-inv F
  0.333333 -0.333333  0.200000    0.00246914  16 t-inv F
 -0.444444  0.444444  0.200000    0.00246914  17 t-inv F
  0.000000 -0.444444  0.200000    0.00246914  17 t-inv F
 -0.000000  0.444444  0.200000    0.00246914  17 t-inv F
 -0.444444 -0.000000  0.200000    0.00246914  17 t-inv F
  0.444444 -0.444444  0.200000    0.00246914  17 t-inv F
 -0.222222  0.111111  0.200000    0.00246914  18 t-inv F
  0.111111 -0.222222  0.200000    0.00246914  18 t-inv F
 -0.111111  0.222222  0.200000    0.00246914  18 t-inv F
  0.222222 -0.111111  0.200000    0.00246914  18 t-inv F
 -0.111111 -0.111111  0.200000    0.00246914  18 t-inv F
 -0.333333  0.222222  0.200000    0.00246914  19 t-inv F
  0.111111 -0.333333  0.200000    0.00246914  19 t-inv F
 -0.222222  0.333333  0.200000    0.00246914  19 t-inv F
  0.333333 -0.111111  0.200000    0.00246914  19 t-inv F
 -0.111111 -0.222222  0.200000    0.00246914  19 t-inv F
 -0.111111  0.333333  0.200000    0.00246914  19 t-inv F
 -0.222222 -0.111111  0.200000    0.00246914  19 t-inv F
  0.333333 -0.222222  0.200000    0.00246914  19 t-inv F
  0.111111  0.222222  0.200000    0.00246914  19 t-inv F
  0.222222 -0.333333  0.200000    0.00246914  19 t-inv F
 -0.333333  0.111111  0.200000    0.00246914  19 t-inv F
 -0.444444  0.333333  0.200000    0.00246914  20 t-inv F
  0.111111 -0.444444  0.200000    0.00246914  20 t-inv F
 -0.333333  0.444444  0.200000    0.00246914  20 t-inv F
  0.444444 -0.111111  0.200000    0.00246914  20 t-inv F
 -0.111111 -0.333333  0.200000    0.00246914  20 t-inv F
 -0.111111  0.444444  0.200000    0.00246914  20 t-inv F
 -0.333333 -0.111111  0.200000    0.00246914  20 t-inv F
  0.444444 -0.333333  0.200000    0.00246914  20 t-inv F
  0.111111  0.333333  0.200000    0.00246914  20 t-inv F
  0.333333 -0.444444  0.200000    0.00246914  20 t-inv F
 -0.444444  0.111111  0.200000    0.00246914  20 t-inv F
 -0.555556  0.444444  0.200000    0.00246914  21 t-inv F
  0.111111 -0.555556  0.200000    0.00246914  21 t-inv F
 -0.444444  0.555556  0.200000    0.00246914  21 t-inv F
  0.555556 -0.111111  0.200000    0.00246914  21 t-inv F
 -0.111111 -0.444444  0.200000    0.00246914  21 t-inv F
 -0.444444  0.222222  0.200000    0.00246914  22 t-inv F
  0.222222 -0.444444  0.200000    0.00246914  22 t-inv F
 -0.222222  0.444444  0.200000    0.00246914  22 t-inv F
  0.444444 -0.222222  0.200000    0.00246914  22 t-inv F
 -0.222222 -0.222222  0.200000    0.00246914  22 t-inv F
 -0.555556  0.333333  0.200000    0.00246914  23 t-inv F
  0.222222 -0.555556  0.200000    0.00246914  23 t-inv F
 -0.333333  0.555556  0.200000    0.00246914  23 t-inv F
  0.555556 -0.222222  0.200000    0.00246914  23 t-inv F
 -0.222222 -0.333333  0.200000    0.00246914  23 t-inv F
 -0.222222  0.555556  0.200000    0.00246914  23 t-inv F
 -0.333333 -0.222222  0.200000    0.00246914  23 t-inv F
  0.555556 -0.333333  0.200000    0.00246914  23 t-inv F
  0.222222  0.333333  0.200000    0.00246914  23 t-inv F
  0.333333 -0.555556  0.200000    0.00246914  23 t-inv F
 -0.555556  0.222222  0.200000    0.00246914  23 t-inv F
 -0.333333  0.666667  0.200000    0.00246914  24 t-inv F
 -0.111111  0.111111  0.400000    0.00246914  26 t-inv F
  0.000000 -0.111111  0.400000    0.00246914  26 t-inv F
 -0.000000  0.111111  0.400000    0.00246914  26 t-inv F
 -0.111111 -0.000000  0.400000    0.00246914  26 t-inv F
  0.111111 -0.111111  0.400000    0.00246914  26 t-inv F
 -0.222222  0.222222  0.400000    0.00246914  27 t-inv F
  0.000000 -0.222222  0.400000    0.00246914  27 t-inv F
 -0.000000  0.222222  0.400000    0.00246914  27 t-inv F
 -0.222222 -0.000000  0.400000    0.00246914  27 t-inv F
  0.222222 -0.222222  0.400000    0.00246914  27 t-inv F
 -0.333333  0.333333  0.400000    0.00246914  28 t-inv F
  0.000000 -0.333333  0.400000    0.00246914  28 t-inv F
 -0.000000  0.333333  0.400000    0.00246914  28 t-inv F
 -0.333333 -0.000000  0.400000    0.00246914  28 t-inv F
  0.333333 -0.333333  0.400000    0.00246914  28 t-inv F
 -0.444444  0.444444  0.400000    0.00246914  29 t-inv F
  0.000000 -0.444444  0.400000    0.00246914  29 t-inv F
 -0.000000  0.444444  0.400000    0.00246914  29 t-inv F
 -0.444444 -0.000000  0.400000    0.00246914  29 t-inv F
  0.444444 -0.444444  0.400000    0.00246914  29 t-inv F
 -0.222222  0.111111  0.400000    0.00246914  30 t-inv F
  0.111111 -0.222222  0.400000    0.00246914  30 t-inv F
 -0.111111  0.222222  0.400000    0.00246914  30 t-inv F
  0.222222 -0.111111  0.400000    0.00246914  30 t-inv F
 -0.111111 -0.111111  0.400000    0.00246914  30 t-inv F
 -0.333333  0.222222  0.400000    0.00246914  31 t-inv F
  0.111111 -0.333333  0.400000    0.00246914  31 t-inv F
 -0.222222  0.333333  0.400000    0.00246914  31 t-inv F
  0.333333 -0.111111  0.400000    0.00246914  31 t-inv F
 -0.111111 -0.222222  0.400000    0.00246914  31 t-inv F
 -0.111111  0.333333  0.400000    0.00246914  31 t-inv F
 -0.222222 -0.111111  0.400000    0.00246914  31 t-inv F
  0.333333 -0.222222  0.400000    0.00246914  31 t-inv F
  0.111111  0.222222  0.400000    0.00246914  31 t-inv F
  0.222222 -0.333333  0.400000    0.00246914  31 t-inv F
 -0.333333  0.111111  0.400000    0.00246914  31 t-inv F
 -0.444444  0.333333  0.400000    0.00246914  32 t-inv F
  0.111111 -0.444444  0.400000    0.00246914  32 t-inv F
 -0.333333  0.444444  0.400000    0.00246914  32 t-inv F
  0.444444 -0.111111  0.400000    0.00246914  32 t-inv F
 -0.111111 -0.333333  0.400000    0.00246914  32 t-inv F
 -0.111111  0.444444  0.400000    0.00246914  32 t-inv F
 -0.333333 -0.111111  0.400000    0.00246914  32 t-inv F
  0.444444 -0.333333  0.400000    0.00246914  32 t-inv F
  0.111111  0.333333  0.400000    0.00246914  32 t-inv F
  0.333333 -0.444444  0.400000    0.00246914  32 t-inv F
 -0.444444  0.111111  0.400000    0.00246914  32 t-inv F
 -0.555556  0.444444  0.400000    0.00246914  33 t-inv F
  0.111111 -0.555556  0.400000    0.00246914  33 t-inv F
 -0.444444  0.555556  0.400000    0.00246914  33 t-inv F
  0.555556 -0.111111  0.400000    0.00246914  33 t-inv F
 -0.111111 -0.444444  0.400000    0.00246914  33 t-inv F
 -0.444444  0.222222  0.400000    0.00246914  34 t-inv F
  0.222222 -0.444444  0.400000    0.00246914  34 t-inv F
 -0.222222  0.444444  0.400000    0.00246914  34 t-inv F
  0.444444 -0.222222  0.400000    0.00246914  34 t-inv F
 -0.222222 -0.222222  0.400000    0.00246914  34 t-inv F
 -0.555556  0.333333  0.400000    0.00246914  35 t-inv F
  0.222222 -0.555556  0.400000    0.00246914  35 t-inv F
 -0.333333  0.555556  0.400000    0.00246914  35 t-inv F
  0.555556 -0.222222  0.400000    0.00246914  35 t-inv F
 -0.222222 -0.333333  0.400000    0.00246914  35 t-inv F
 -0.222222  0.555556  0.400000    0.00246914  35 t-inv F
 -0.333333 -0.222222  0.400000    0.00246914  35 t-inv F
  0.555556 -0.333333  0.400000    0.00246914  35 t-inv F
  0.222222  0.333333  0.400000    0.00246914  35 t-inv F
  0.333333 -0.555556  0.400000    0.00246914  35 t-inv F
 -0.555556  0.222222  0.400000    0.00246914  35 t-inv F
 -0.333333  0.666667  0.400000    0.00246914  36 t-inv F
 -0.000000 -0.000000 -0.200000    0.00246914  13 t-inv T
 -0.111111 -0.000000 -0.200000    0.00246914  14 t-inv T
  0.111111 -0.111111 -0.200000    0.00246914  14 t-inv T
 -0.000000  0.111111 -0.200000    0.00246914  14 t-inv T
  0.000000 -0.111111 -0.200000    0.00246914  14 t-inv T
  0.111111  0.000000 -0.200000    0.00246914  14 t-inv T
 -0.111111  0.111111 -0.200000    0.00246914  14 t-inv T
 -0.222222 -0.000000 -0.200000    0.00246914  15 t-inv T
  0.222222 -0.222222 -0.200000    0.00246914  15 t-inv T
 -0.000000  0.222222 -0.200000    0.00246914  15 t-inv T
  0.000000 -0.222222 -0.200000    0.00246914  15 t-inv T
  0.222222  0.000000 -0.200000    0.00246914  15 t-inv T
 -0.222222  0.222222 -0.200000    0.00246914  15 t-inv T
 -0.333333 -0.000000 -0.200000    0.00246914  16 t-inv T
  0.333333 -0.333333 -0.200000    0.00246914  16 t-inv T
 -0.000000  0.333333 -0.200000    0.00246914  16 t-inv T
  0.000000 -0.333333 -0.200000    0.00246914  16 t-inv T
  0.333333  0.000000 -0.200000    0.00246914  16 t-inv T
 -0.333333  0.333333 -0.200000    0.00246914  16 t-inv T
 -0.444444 -0.000000 -0.200000    0.00246914  17 t-inv T
  0.444444 -0.444444 -0.200000    0.00246914  17 t-inv T
 -0.000000  0.444444 -0.200000    0.00246914  17 t-inv T
  0.000000 -0.444444 -0.200000    0.00246914  17 t-inv T
  0.444444  0.000000 -0.200000    0.00246914  17 t-inv T
 -0.444444  0.444444 -0.200000    0.00246914  17 t-inv T
 -0.111111 -0.111111 -0.200000    0.00246914  18 t-inv T
  0.222222 -0.111111 -0.200000    0.00246914  18 t-inv T
 -0.111111  0.222222 -0.200000    0.00246914  18 t-inv T
  0.111111 -0.222222 -0.200000    0.00246914  18 t-inv T
 -0.222222  0.111111 -0.200000    0.00246914  18 t-inv T
  0.111111  0.111111 -0.200000    0.00246914  18 t-inv T
 -0.222222 -0.111111 -0.200000    0.00246914  19 t-inv T
  0.333333 -0.222222 -0.200000    0.00246914  19 t-inv T
 -0.111111  0.333333 -0.200000    0.00246914  19 t-inv T
  0.222222 -0.333333 -0.200000    0.00246914  19 t-inv T
 -0.333333  0.111111 -0.200000    0.00246914  19 t-inv T
  0.111111  0.222222 -0.200000    0.00246914  19 t-inv T
  0.111111 -0.333333 -0.200000    0.00246914  19 t-inv T
  0.222222  0.111111 -0.200000    0.00246914  19 t-inv T
 -0.333333  0.222222 -0.200000    0.00246914  19 t-inv T
 -0.111111 -0.222222 -0.200000    0.00246914  19 t-inv T
 -0.222222  0.333333 -0.200000    0.00246914  19 t-inv T
  0.333333 -0.111111 -0.200000    0.00246914  19 t-inv T
 -0.333333 -0.111111 -0.200000    0.00246914  20 t-inv T
  0.444444 -0.333333 -0.200000    0.00246914  20 t-inv T
 -0.111111  0.444444 -0.200000    0.00246914  20 t-inv T
  0.333333 -0.444444 -0.200000    0.00246914  20 t-inv T
 -0.444444  0.111111 -0.200000    0.00246914  20 t-inv T
  0.111111  0.333333 -0.200000    0.00246914  20 t-inv T
  0.111111 -0.444444 -0.200000    0.00246914  20 t-inv T
  0.333333  0.111111 -0.200000    0.00246914  20 t-inv T
 -0.444444  0.333333 -0.200000    0.00246914  20 t-inv T
 -0.111111 -0.333333 -0.200000    0.00246914  20 t-inv T
 -0.333333  0.444444 -0.200000    0.00246914  20 t-inv T
  0.444444 -0.111111 -0.200000    0.00246914  20 t-inv T
 -0.444444 -0.111111 -0.200000    0.00246914  21 t-inv T
  0.555556 -0.444444 -0.200000    0.00246914  21 t-inv T
 -0.111111  0.555556 -0.200000    0.00246914  21 t-inv T
  0.444444 -0.555556 -0.200000    0.00246914  21 t-inv T
 -0.555556  0.111111 -0.200000    0.00246914  21 t-inv T
  0.111111  0.444444 -0.200000    0.00246914  21 t-inv T
 -0.222222 -0.222222 -0.200000    0.00246914  22 t-inv T
  0.444444 -0.222222 -0.200000    0.00246914  22 t-inv T
 -0.222222  0.444444 -0.200000    0.00246914  22 t-inv T
  0.222222 -0.444444 -0.200000    0.00246914  22 t-inv T
 -0.444444  0.222222 -0.200000    0.00246914  22 t-inv T
  0.222222  0.222222 -0.200000    0.00246914  22 t-inv T
 -0.333333 -0.222222 -0.200000    0.00246914  23 t-inv T
  0.555556 -0.333333 -0.200000    0.00246914  23 t-inv T
 -0.222222  0.555556 -0.200000    0.00246914  23 t-inv T
  0.333333 -0.555556 -0.200000    0.00246914  23 t-inv T
 -0.555556  0.222222 -0.200000    0.00246914  23 t-inv T
  0.222222  0.333333 -0.200000    0.00246914  23 t-inv T
  0.222222 -0.555556 -0.200000    0.00246914  23 t-inv T
  0.333333  0.222222 -0.200000    0.00246914  23 t-inv T
 -0.555556  0.333333 -0.200000    0.00246914  23 t-inv T
 -0.222222 -0.333333 -0.200000    0.00246914  23 t-inv T
 -0.333333  0.555556 -0.200000    0.00246914  23 t-inv T
  0.555556 -0.222222 -0.200000    0.00246914  23 t-inv T
 -0.333333 -0.333333 -0.200000    0.00246914  24 t-inv T
  0.333333 -0.666667 -0.200000    0.00246914  24 t-inv T
 -0.000000 -0.000000 -0.400000    0.00246914  25 t-inv T
 -0.111111 -0.000000 -0.400000    0.00246914  26 t-inv T
  0.111111 -0.111111 -0.400000    0.00246914  26 t-inv T
 -0.000000  0.111111 -0.400000    0.00246914  26 t-inv T
  0.000000 -0.111111 -0.400000    0.00246914  26 t-inv T
  0.111111  0.000000 -0.400000    0.00246914  26 t-inv T
 -0.111111  0.111111 -0.400000    0.00246914  26 t-inv T
 -0.222222 -0.000000 -0.400000    0.00246914  27 t-inv T
  0.222222 -0.222222 -0.400000    0.00246914  27 t-inv T
 -0.000000  0.222222 -0.400000    0.00246914  27 t-inv T
  0.000000 -0.222222 -0.400000    0.00246914  27 t-inv T
  0.222222  0.000000 -0.400000    0.00246914  27 t-inv T
 -0.222222  0.222222 -0.400000    0.00246914  27 t-inv T
 -0.333333 -0.000000 -0.400000    0.00246914  28 t-inv T
  0.333333 -0.333333 -0.400000    0.00246914  28 t-inv T
 -0.000000  0.333333 -0.400000    0.00246914  28 t-inv T
  0.000000 -0.333333 -0.400000    0.00246914  28 t-inv T
  0.333333  0.000000 -0.400000    0.00246914  28 t-inv T
 -0.333333  0.333333 -0.400000    0.00246914  28 t-inv T
 -0.444444 -0.000000 -0.400000    0.00246914  29 t-inv T
  0.444444 -0.444444 -0.400000    0.00246914  29 t-inv T
 -0.000000  0.444444 -0.400000    0.00246914  29 t-inv T
  0.000000 -0.444444 -0.400000    0.00246914  29 t-inv T
  0.444444  0.000000 -0.400000    0.00246914  29 t-inv T
 -0.444444  0.444444 -0.400000    0.00246914  29 t-inv T
 -0.111111 -0.111111 -0.400000    0.00246914  30 t-inv T
  0.222222 -0.111111 -0.400000    0.00246914  30 t-inv T
 -0.111111  0.222222 -0.400000    0.00246914  30 t-inv T
  0.111111 -0.222222 -0.400000    0.00246914  30 t-inv T
 -0.222222  0.111111 -0.400000    0.00246914  30 t-inv T
  0.111111  0.111111 -0.400000    0.00246914  30 t-inv T
 -0.222222 -0.111111 -0.400000    0.00246914  31 t-inv T
  0.333333 -0.222222 -0.400000    0.00246914  31 t-inv T
 -0.111111  0.333333 -0.400000    0.00246914  31 t-inv T
  0.222222 -0.333333 -0.400000    0.00246914  31 t-inv T
 -0.333333  0.111111 -0.400000    0.00246914  31 t-inv T
  0.111111  0.222222 -0.400000    0.00246914  31 t-inv T
  0.111111 -0.333333 -0.400000    0.00246914  31 t-inv T
  0.222222  0.111111 -0.400000    0.00246914  31 t-inv T
 -0.333333  0.222222 -0.400000    0.00246914  31 t-inv T
 -0.111111 -0.222222 -0.400000    0.00246914  31 t-inv T
 -0.222222  0.333333 -0.400000    0.00246914  31 t-inv T
  0.333333 -0.111111 -0.400000    0.00246914  31 t-inv T
 -0.333333 -0.111111 -0.400000    0.00246914  32 t-inv T
  0.444444 -0.333333 -0.400000    0.00246914  32 t-inv T
 -0.111111  0.444444 -0.400000    0.00246914  32 t-inv T
  0.333333 -0.444444 -0.400000    0.00246914  32 t-inv T
 -0.444444  0.111111 -0.400000    0.00246914  32 t-inv T
  0.111111  0.333333 -0.400000    0.00246914  32 t-inv T
  0.111111 -0.444444 -0.400000    0.00246914  32 t-inv T
  0.333333  0.111111 -0.400000    0.00246914  32 t-inv T
 -0.444444  0.333333 -0.400000    0.00246914  32 t-inv T
 -0.111111 -0.333333 -0.400000    0.00246914  32 t-inv T
 -0.333333  0.444444 -0.400000    0.00246914  32 t-inv T
  0.444444 -0.111111 -0.400000    0.00246914  32 t-inv T
 -0.444444 -0.111111 -0.400000    0.00246914  33 t-inv T
  0.555556 -0.444444 -0.400000    0.00246914  33 t-inv T
 -0.111111  0.555556 -0.400000    0.00246914  33 t-inv T
  0.444444 -0.555556 -0.400000    0.00246914  33 t-inv T
 -0.555556  0.111111 -0.400000    0.00246914  33 t-inv T
  0.111111  0.444444 -0.400000    0.00246914  33 t-inv T
 -0.222222 -0.222222 -0.400000    0.00246914  34 t-inv T
  0.444444 -0.222222 -0.400000    0.00246914  34 t-inv T
 -0.222222  0.444444 -0.400000    0.00246914  34 t-inv T
  0.222222 -0.444444 -0.400000    0.00246914  34 t-inv T
 -0.444444  0.222222 -0.400000    0.00246914  34 t-inv T
  0.222222  0.222222 -0.400000    0.00246914  34 t-inv T
 -0.333333 -0.222222 -0.400000    0.00246914  35 t-inv T
  0.555556 -0.333333 -0.400000    0.00246914  35 t-inv T
 -0.222222  0.555556 -0.400000    0.00246914  35 t-inv T
  0.333333 -0.555556 -0.400000    0.00246914  35 t-inv T
 -0.555556  0.222222 -0.400000    0.00246914  35 t-inv T
  0.222222  0.333333 -0.400000    0.00246914  35 t-inv T
  0.222222 -0.555556 -0.400000    0.00246914  35 t-inv T
  0.333333  0.222222 -0.400000    0.00246914  35 t-inv T
 -0.555556  0.333333 -0.400000    0.00246914  35 t-inv T
 -0.222222 -0.333333 -0.400000    0.00246914  35 t-inv T
 -0.333333  0.555556 -0.400000    0.00246914  35 t-inv T
  0.555556 -0.222222 -0.400000    0.00246914  35 t-inv T
 -0.333333 -0.333333 -0.400000    0.00246914  36 t-inv T
  0.333333 -0.666667 -0.400000    0.00246914  36 t-inv T


--------------------------------------------------------------------------------------------------------




 Dimension of arrays:
   k-points           NKPTS =     36   k-points in BZ     NKDIM =     36   number of bands    NBANDS=     16
   number of dos      NEDOS =   5000   number of ions     NIONS =      4
   non local maximal  LDIM  =      4   non local SUM 2l+1 LMDIM =      8
   total plane-waves  NPLWV =  43200
   max r-space proj   IRMAX =      1   max aug-charges    IRDMAX=  39660
   dimension x,y,z NGX =    30 NGY =   30 NGZ =   48
   dimension x,y,z NGXF=    60 NGYF=   60 NGZF=   96
   support grid    NGXF=    60 NGYF=   60 NGZF=   96
   ions per type =               2   2
   NGX,Y,Z   is equivalent  to a cutoff of  15.93, 15.93, 15.89 a.u.
   NGXF,Y,Z  is equivalent  to a cutoff of  31.87, 31.87, 31.78 a.u.

 SYSTEM =  unknown system                          
 POSCAR =  bulk@JVASP-39_mp-661                    

 Startparameter for this run:
   NWRITE =      3    write-flag & timer
   PREC   = accura    normal or accurate (medium, high low for compatibility)
   ISTART =      0    job   : 0-new  1-cont  2-samecut
   ICHARG =      2    charge: 1-file 2-atom 10-const
   ISPIN  =      1    spin polarized calculation?
   LNONCOLLINEAR =      F non collinear calculations
   LSORBIT =      F    spin-orbit coupling
   INIWAV =      1    electr: 0-lowe 1-rand  2-diag
   LASPH  =      T    aspherical Exc in radial PAW
   METAGGA=      F    non-selfconsistent MetaGGA calc.

 Electronic Relaxation 1
   ENCUT  =  850.0 eV  62.47 Ry    7.90 a.u.   7.44  7.44 11.94*2*pi/ulx,y,z
   ENINI  =  850.0     initial cutoff
   ENAUG  =  627.1 eV  augmentation charge cutoff
   NELM   =    400;   NELMIN=  2; NELMDL= -5     # of ELM steps 
   EDIFF  = 0.1E-05   stopping-criterion for ELM
   LREAL  =      F    real-space projection
   NLSPLINE    = F    spline interpolate recip. space projectors
   LCOMPAT=      F    compatible to vasp.4.4
   GGA_COMPAT  = T    GGA compatible to vasp.4.4-vasp.4.6
   LMAXPAW     = -100 max onsite density
   LMAXMIX     =    2 max onsite mixed and CHGCAR
   VOSKOWN=      0    Vosko Wilk Nusair interpolation
   ROPT   =    0.00000   0.00000
 Ionic relaxation
   EDIFFG = 0.1E-04   stopping-criterion for IOM
   NSW    =      1    number of steps for IOM
   NBLOCK =      1;   KBLOCK =      1    inner block; outer block 
   IBRION =      8    ionic relax: 0-MD 1-quasi-New 2-CG
   NFREE  =      2    steps in history (QN), initial steepest desc. (CG)
   ISIF   =      3    stress and relaxation
   IWAVPR =     11    prediction:  0-non 1-charg 2-wave 3-comb
   ISYM   =      2    0-nonsym 1-usesym 2-fastsym
   LCORR  =      T    Harris-Foulkes like correction to forces

   POTIM  = 0.0500    time-step for ionic-motion
   TEIN   =    0.0    initial temperature
   TEBEG  =    0.0;   TEEND  =   0.0 temperature during run
   SMASS  =  -3.00    Nose mass-parameter (am)
   estimated Nose-frequenzy (Omega)   =  0.10E-29 period in steps =****** mass=  -0.224E-27a.u.
   SCALEE = 1.0000    scale energy and forces
   NPACO  =    256;   APACO  = 16.0  distance and # of slots for P.C.
   PSTRESS=    0.0 pullay stress

  Mass of Ions in am
   POMASS =  26.98 14.00
  Ionic Valenz
   ZVAL   =   3.00  5.00
  Atomic Wigner-Seitz radii
   RWIGS  =  -1.00 -1.00
  virtual crystal weights 
   VCA    =   1.00  1.00
   NELECT =      16.0000    total number of electrons
   NUPDOWN=      -1.0000    fix difference up-down

 DOS related values:
   EMIN   =  10.00;   EMAX   =-10.00  energy-range for DOS
   EFERMI =   0.00
   ISMEAR =     0;   SIGMA  =   0.01  broadening in eV -4-tet -1-fermi 0-gaus

 Electronic relaxation 2 (details)
   IALGO  =     38    algorithm
   LDIAG  =      T    sub-space diagonalisation (order eigenvalues)
   LSUBROT=      F    optimize rotation matrix (better conditioning)
   TURBO    =      0    0=normal 1=particle mesh
   IRESTART =      0    0=no restart 2=restart with 2 vectors
   NREBOOT  =      0    no. of reboots
   NMIN     =      0    reboot dimension
   EREF     =   0.00    reference energy to select bands
   IMIX   =      4    mixing-type and parameters
     AMIX     =   0.40;   BMIX     =  1.00
     AMIX_MAG =   1.60;   BMIX_MAG =  1.00
     AMIN     =   0.10
     WC   =   100.;   INIMIX=   1;  MIXPRE=   1;  MAXMIX= -45

 Intra band minimization:
   WEIMIN = 0.0010     energy-eigenvalue tresh-hold
   EBREAK =  0.16E-07  absolut break condition
   DEPER  =   0.30     relativ break condition  

   TIME   =   0.40     timestep for ELM

  volume/ion in A,a.u.               =      10.65        71.88
  Fermi-wavevector in a.u.,A,eV,Ry     =   1.181137  2.232025 18.981278  1.395085
  Thomas-Fermi vector in A             =   2.317416

 Write flags
   LWAVE        =      F    write WAVECAR
   LDOWNSAMPLE  =      F    k-point downsampling of WAVECAR
   LCHARG       =      F    write CHGCAR
   LVTOT        =      F    write LOCPOT, total local potential
   LVHAR        =      F    write LOCPOT, Hartree potential only
   LELF         =      F    write electronic localiz. function (ELF)
   LORBIT       =     11    0 simple, 1 ext, 2 COOP (PROOUT), +10 PAW based schemes


 Dipole corrections
   LMONO  =      F    monopole corrections only (constant potential shift)
   LDIPOL =      F    correct potential (dipole corrections)
   IDIPOL =      0    1-x, 2-y, 3-z, 4-all directions 
   EPSILON=  1.0000000 bulk dielectric constant

 Exchange correlation treatment:
   GGA     =    BO    GGA type
   LEXCH   =    42    internal setting for exchange type
   VOSKOWN=      0    Vosko Wilk Nusair interpolation
   LHFCALC =     F    Hartree Fock is set to
   LHFONE  =     F    Hartree Fock one center treatment
   AEXX    =    0.0000 exact exchange contribution

 vdW DFT:
   LUSE_VDW   =     T    switch on vdW DFT
   Zab_VDW    =-.8491    correlation parameter
   PARAM1     =0.1833
   PARAM2     =0.2200
   PARAM3     =0.0000
   -- rVV10 --
   BPARAM     = 6.3000
   CPARAM     = 0.0093

 Linear response parameters
   LEPSILON=     T    determine dielectric tensor
   LRPA    =     F    only Hartree local field effects (RPA)
   LNABLA  =     F    use nabla operator in PAW spheres
   LVEL    =     F    velocity operator in full k-point grid
   LINTERFAST=   F  fast interpolation
   KINTER  =     0    interpolate to denser k-point grid
   CSHIFT  =0.1000    complex shift for real part using Kramers Kronig
   OMEGAMAX=  -1.0    maximum frequency
   DEG_THRESHOLD= 0.2000000E-02 threshold for treating states as degnerate
   RTIME   =   -0.100 relaxation time in fs
  (WPLASMAI=    0.000 imaginary part of plasma frequency in eV, 0.658/RTIME)
   DFIELD  = 0.0000000 0.0000000 0.0000000 field for delta impulse in time

 Orbital magnetization related:
   ORBITALMAG=     F  switch on orbital magnetization
   LCHIMAG   =     F  perturbation theory with respect to B field
   DQ        =  0.001000  dq finite difference perturbation B field
   LLRAUG    =     F  two centre corrections for induced B field



--------------------------------------------------------------------------------------------------------


 linear response using symmetry
 charge density and potential will be updated during run
 non-spin polarized calculation
 Variant of blocked Davidson
 Davidson routine will perform the subspace rotation
 perform sub-space diagonalisation
    after iterative eigenvector-optimisation
 modified Broyden-mixing scheme, WC =      100.0
 initial mixing is a Kerker type mixing with AMIX =  0.4000 and BMIX =      1.0000
 Hartree-type preconditioning will be used
 using additional bands            8
 reciprocal scheme for non local part
 use partial core corrections
 calculate Harris-corrections to forces   (improved forces if not selfconsistent)
 use gradient corrections 
 use of overlap-Matrix (Vanderbilt PP)
 Gauss-broadening in eV      SIGMA  =   0.01


--------------------------------------------------------------------------------------------------------


  energy-cutoff  :      850.00
  volume of cell :       42.60
      direct lattice vectors                 reciprocal lattice vectors
     1.565022000 -2.710698000  0.000000000     0.319484327 -0.184454336  0.000000000
     1.565022000  2.710698000  0.000000000     0.319484327  0.184454336 -0.000000000
     0.000000000  0.000000000  5.021253000    -0.000000000  0.000000000  0.199153478

  length of vectors
     3.130044330  3.130044330  5.021253000     0.368908711  0.368908711  0.199153478



 k-points in units of 2pi/SCALE and weight: Automatic kpoint scheme                 
   0.00000000  0.00000000  0.00000000       0.002
   0.03549826 -0.02049493  0.00000000       0.015
   0.07099652 -0.04098985  0.00000000       0.015
   0.10649478 -0.06148478  0.00000000       0.015
   0.14199303 -0.08197970  0.00000000       0.015
   0.07099652  0.00000000  0.00000000       0.015
   0.10649478 -0.02049493  0.00000000       0.030
   0.14199303 -0.04098985  0.00000000       0.030
   0.17749129 -0.06148478  0.00000000       0.015
   0.14199303  0.00000000  0.00000000       0.015
   0.17749129 -0.02049493  0.00000000       0.030
   0.21298955  0.00000000  0.00000000       0.005
   0.00000000  0.00000000  0.03983070       0.005
   0.03549826 -0.02049493  0.03983070       0.030
   0.07099652 -0.04098985  0.03983070       0.030
   0.10649478 -0.06148478  0.03983070       0.030
   0.14199303 -0.08197970  0.03983070       0.030
   0.07099652  0.00000000  0.03983070       0.030
   0.10649478 -0.02049493  0.03983070       0.059
   0.14199303 -0.04098985  0.03983070       0.059
   0.17749129 -0.06148478  0.03983070       0.030
   0.14199303  0.00000000  0.03983070       0.030
   0.17749129 -0.02049493  0.03983070       0.059
   0.21298955  0.00000000  0.03983070       0.010
   0.00000000  0.00000000  0.07966139       0.005
   0.03549826 -0.02049493  0.07966139       0.030
   0.07099652 -0.04098985  0.07966139       0.030
   0.10649478 -0.06148478  0.07966139       0.030
   0.14199303 -0.08197970  0.07966139       0.030
   0.07099652  0.00000000  0.07966139       0.030
   0.10649478 -0.02049493  0.07966139       0.059
   0.14199303 -0.04098985  0.07966139       0.059
   0.17749129 -0.06148478  0.07966139       0.030
   0.14199303  0.00000000  0.07966139       0.030
   0.17749129 -0.02049493  0.07966139       0.059
   0.21298955  0.00000000  0.07966139       0.010

 k-points in reciprocal lattice and weights: Automatic kpoint scheme                 
   0.00000000  0.00000000  0.00000000       0.002
   0.11111111  0.00000000  0.00000000       0.015
   0.22222222  0.00000000  0.00000000       0.015
   0.33333333  0.00000000  0.00000000       0.015
   0.44444444  0.00000000  0.00000000       0.015
   0.11111111  0.11111111  0.00000000       0.015
   0.22222222  0.11111111  0.00000000       0.030
   0.33333333  0.11111111  0.00000000       0.030
   0.44444444  0.11111111  0.00000000       0.015
   0.22222222  0.22222222  0.00000000       0.015
   0.33333333  0.22222222  0.00000000       0.030
   0.33333333  0.33333333  0.00000000       0.005
   0.00000000  0.00000000  0.20000000       0.005
   0.11111111  0.00000000  0.20000000       0.030
   0.22222222  0.00000000  0.20000000       0.030
   0.33333333  0.00000000  0.20000000       0.030
   0.44444444  0.00000000  0.20000000       0.030
   0.11111111  0.11111111  0.20000000       0.030
   0.22222222  0.11111111  0.20000000       0.059
   0.33333333  0.11111111  0.20000000       0.059
   0.44444444  0.11111111  0.20000000       0.030
   0.22222222  0.22222222  0.20000000       0.030
   0.33333333  0.22222222  0.20000000       0.059
   0.33333333  0.33333333  0.20000000       0.010
   0.00000000  0.00000000  0.40000000       0.005
   0.11111111  0.00000000  0.40000000       0.030
   0.22222222  0.00000000  0.40000000       0.030
   0.33333333  0.00000000  0.40000000       0.030
   0.44444444  0.00000000  0.40000000       0.030
   0.11111111  0.11111111  0.40000000       0.030
   0.22222222  0.11111111  0.40000000       0.059
   0.33333333  0.11111111  0.40000000       0.059
   0.44444444  0.11111111  0.40000000       0.030
   0.22222222  0.22222222  0.40000000       0.030
   0.33333333  0.22222222  0.40000000       0.059
   0.33333333  0.33333333  0.40000000       0.010

 position of ions in fractional coordinates (direct lattice) 
   0.33333300  0.66666700  0.50066900
   0.66666700  0.33333300  0.00066900
   0.33333300  0.66666700  0.11933100
   0.66666700  0.33333300  0.61933100

 position of ions in cartesian coordinates  (Angst):
   1.56502200  0.90356781  2.51398572
   1.56502200 -0.90356781  0.00335922
   1.56502200  0.90356781  0.59919114
   1.56502200 -0.90356781  3.10981764



--------------------------------------------------------------------------------------------------------


 k-point  1 :   0.0000 0.0000 0.0000  plane waves:    2381
 k-point  2 :   0.1111 0.0000 0.0000  plane waves:    2391
 k-point  3 :   0.2222 0.0000 0.0000  plane waves:    2403
 k-point  4 :   0.3333 0.0000 0.0000  plane waves:    2399
 k-point  5 :   0.4444 0.0000 0.0000  plane waves:    2384
 k-point  6 :   0.1111 0.1111 0.0000  plane waves:    2405
 k-point  7 :   0.2222 0.1111 0.0000  plane waves:    2398
 k-point  8 :   0.3333 0.1111 0.0000  plane waves:    2390
 k-point  9 :   0.4444 0.1111 0.0000  plane waves:    2386
 k-point 10 :   0.2222 0.2222 0.0000  plane waves:    2389
 k-point 11 :   0.3333 0.2222 0.0000  plane waves:    2391
 k-point 12 :   0.3333 0.3333 0.0000  plane waves:    2400
 k-point 13 :   0.0000 0.0000 0.2000  plane waves:    2418
 k-point 14 :   0.1111 0.0000 0.2000  plane waves:    2407
 k-point 15 :   0.2222 0.0000 0.2000  plane waves:    2405
 k-point 16 :   0.3333 0.0000 0.2000  plane waves:    2405
 k-point 17 :   0.4444 0.0000 0.2000  plane waves:    2385
 k-point 18 :   0.1111 0.1111 0.2000  plane waves:    2409
 k-point 19 :   0.2222 0.1111 0.2000  plane waves:    2405
 k-point 20 :   0.3333 0.1111 0.2000  plane waves:    2391
 k-point 21 :   0.4444 0.1111 0.2000  plane waves:    2393
 k-point 22 :   0.2222 0.2222 0.2000  plane waves:    2398
 k-point 23 :   0.3333 0.2222 0.2000  plane waves:    2390
 k-point 24 :   0.3333 0.3333 0.2000  plane waves:    2385
 k-point 25 :   0.0000 0.0000 0.4000  plane waves:    2406
 k-point 26 :   0.1111 0.0000 0.4000  plane waves:    2415
 k-point 27 :   0.2222 0.0000 0.4000  plane waves:    2413
 k-point 28 :   0.3333 0.0000 0.4000  plane waves:    2405
 k-point 29 :   0.4444 0.0000 0.4000  plane waves:    2398
 k-point 30 :   0.1111 0.1111 0.4000  plane waves:    2411
 k-point 31 :   0.2222 0.1111 0.4000  plane waves:    2404
 k-point 32 :   0.3333 0.1111 0.4000  plane waves:    2399
 k-point 33 :   0.4444 0.1111 0.4000  plane waves:    2386
 k-point 34 :   0.2222 0.2222 0.4000  plane waves:    2398
 k-point 35 :   0.3333 0.2222 0.4000  plane waves:    2378
 k-point 36 :   0.3333 0.3333 0.4000  plane waves:    2376

 maximum and minimum number of plane-waves per node :      2418     2376

 maximum number of plane-waves:      2418
 maximum index in each direction: 
   IXMAX=    7   IYMAX=    7   IZMAX=   11
   IXMIN=   -7   IYMIN=   -7   IZMIN=  -12


 serial   3D FFT for wavefunctions
 parallel 3D FFT for charge:
    minimum data exchange during FFTs selected (reduces bandwidth)


 total amount of memory used by VASP MPI-rank0    46798. kBytes
=======================================================================

   base      :      30000. kBytes
   nonl-proj :      11362. kBytes
   fftplans  :        954. kBytes
   grid      :       3051. kBytes
   one-center:         12. kBytes
   wavefun   :       1419. kBytes

     INWAV:  cpu time    0.0000: real time    0.0000
 Broyden mixing: mesh for mixing (old mesh)
   NGX = 15   NGY = 15   NGZ = 23
  (NGX  = 60   NGY  = 60   NGZ  = 96)
  gives a total of   5175 points

 initial charge density was supplied:
 charge density of overlapping atoms calculated
 number of electron      16.0000000 magnetization 
 keeping initial charge density in first step


--------------------------------------------------------------------------------------------------------


 Maximum index for augmentation-charges         2499 (set IRDMAX)


--------------------------------------------------------------------------------------------------------


 First call to EWALD:  gamma=   0.507
 Maximum number of real-space cells 3x 3x 2
 Maximum number of reciprocal cells 3x 3x 4

    FEWALD:  cpu time    0.0040: real time    0.0030


--------------------------------------- Iteration      1(   1)  ---------------------------------------


vdW kernel read from vdw_kernel.bindat
  0.0000  0.2424  0.5071  0.7962  1.1119  1.4567  1.8333  2.2446  2.6937  3.1842
  3.7199  4.3049  4.9438  5.6415  6.4036  7.2358  8.1446  9.1372 10.2212 11.4050
 12.6979 14.1099 15.6519 17.3360 19.1751 21.1837 23.3773 25.7729 28.3892 31.2465
 34.3669 37.7748 41.4965 45.5611 50.0000

    POTLOK:  cpu time   12.3600: real time   12.4042
    SETDIJ:  cpu time    0.3840: real time    0.3860
     EDDAV:  cpu time    1.8720: real time    1.8830
       DOS:  cpu time    0.0040: real time    0.0026
    --------------------------------------------
      LOOP:  cpu time   14.6200: real time   14.6758

 eigenvalue-minimisations  :  1152
 total energy-change (2. order) : 0.5687996E+02  (-0.1091112E+04)
 number of electron      16.0000000 magnetization 
 augmentation part       16.0000000 magnetization 

 Free energy of the ion-electron system (eV)
  ---------------------------------------------------
  alpha Z        PSCENC =        15.34496861
  Ewald energy   TEWEN  =      -587.95466205
  -Hartree energ DENC   =      -120.28341280
  -exchange      EXHF   =         0.00000000
  -V(xc)+E(xc)   XCENC  =       -14.30735919
  PAW double counting   =       545.87649826     -480.71821733
  entropy T*S    EENTRO =        -0.00006424
  eigenvalues    EBANDS =        56.29668213
  atomic energy  EATOM  =       642.62553060
  Solvation  Ediel_sol  =         0.00000000
  ---------------------------------------------------
  free energy    TOTEN  =        56.87996398 eV

  energy without entropy =       56.88002823  energy(sigma->0) =       56.87999611


--------------------------------------------------------------------------------------------------------




 average (electrostatic) potential at core
  the test charge radii are     1.0406  0.7089
  (the norm of the test charge is              1.0000)
       1 -71.8036       2 -71.8036       3 -67.4215       4 -67.4215



 E-fermi :  14.3902     XC(G=0): -11.2438     alpha+bet :-15.6018


 k-point     1 :       0.0000    0.0000    0.0000
  band No.  band energies     occupation 
      1     -11.1795      2.00000
      2      -5.8652      2.00000
      3       1.0671      2.00000
      4       7.4200      2.00000
      5       9.2782      2.00000
      6      10.5742      2.00000
      7      13.4037      2.00000
      8      15.1839      0.00000
      9      17.6351      0.00000
     10      19.5513      0.00000
     11      21.9766      0.00000
     12      22.8432      0.00000
     13      25.1674      0.00000
     14      27.2887      0.00000
     15      31.0886      0.00000
     16      31.6812      0.00000

 k-point     2 :       0.1111    0.0000    0.0000
  band No.  band energies     occupation 
      1     -10.7257      2.00000
      2      -5.3708      2.00000
      3       1.1358      2.00000
      4       7.5080      2.00000
      5       8.8289      2.00000
      6      10.6228      2.00000
      7      11.4802      2.00000
      8      14.5117      0.00000
      9      16.6141      0.00000
     10      19.6145      0.00000
     11      21.7092      0.00000
     12      24.3198      0.00000
     13      26.6202      0.00000
     14      29.6847      0.00000
     15      32.3445      0.00000
     16      35.0049      0.00000

 k-point     3 :       0.2222    0.0000    0.0000
  band No.  band energies     occupation 
      1     -10.1118      2.00000
      2      -5.3244      2.00000
      3       1.2968      2.00000
      4       4.9030      2.00000
      5       5.8982      2.00000
      6       7.4942      2.00000
      7      10.3507      2.00000
      8      13.7973      2.00000
      9      17.3312      0.00000
     10      18.3397      0.00000
     11      20.3110      0.00000
     12      23.2595      0.00000
     13      25.3240      0.00000
     14      27.6795      0.00000
     15      30.3347      0.00000
     16      34.1637      0.00000

 k-point     4 :       0.3333    0.0000    0.0000
  band No.  band energies     occupation 
      1      -9.1620      2.00000
      2      -4.0059      2.00000
      3       2.0765      2.00000
      4       2.5826      2.00000
      5       4.3825      2.00000
      6       8.3264      2.00000
      7      10.2115      2.00000
      8      12.6498      2.00000
      9      14.9580      0.00000
     10      17.1888      0.00000
     11      18.2054      0.00000
     12      22.8920      0.00000
     13      24.0319      0.00000
     14      27.5588      0.00000
     15      29.9462      0.00000
     16      32.2616      0.00000

 k-point     5 :       0.4444    0.0000    0.0000
  band No.  band energies     occupation 
      1      -5.9408      2.00000
      2      -4.5784      2.00000
      3       1.2678      2.00000
      4       3.4672      2.00000
      5       4.7043      2.00000
      6       7.2779      2.00000
      7      10.1559      2.00000
      8      13.7883      2.00000
      9      16.0976      0.00000
     10      17.7415      0.00000
     11      22.7798      0.00000
     12      25.1625      0.00000
     13      27.3398      0.00000
     14      30.9505      0.00000
     15      31.2290      0.00000
     16      34.5464      0.00000

 k-point     6 :       0.1111    0.1111    0.0000
  band No.  band energies     occupation 
      1     -10.4032      2.00000
      2      -6.1303      2.00000
      3       1.2219      2.00000
      4       5.7168      2.00000
      5       6.6940      2.00000
      6       7.9122      2.00000
      7      11.0318      2.00000
      8      13.4625      2.00000
      9      17.6249      0.00000
     10      18.9974      0.00000
     11      21.0081      0.00000
     12      22.9121      0.00000
     13      25.0539      0.00000
     14      26.8386      0.00000
     15      30.4611      0.00000
     16      33.5175      0.00000

 k-point     7 :       0.2222    0.1111    0.0000
  band No.  band energies     occupation 
      1      -9.4954      2.00000
      2      -5.0354      2.00000
      3       2.2302      2.00000
      4       4.7261      2.00000
      5       5.7429      2.00000
      6       6.7973      2.00000
      7       9.1559      2.00000
      8      13.5865      2.00000
      9      16.1298      0.00000
     10      18.0675      0.00000
     11      19.8461      0.00000
     12      22.5023      0.00000
     13      24.8960      0.00000
     14      27.3804      0.00000
     15      28.2579      0.00000
     16      32.6841      0.00000

 k-point     8 :       0.3333    0.1111    0.0000
  band No.  band energies     occupation 
      1      -6.8813      2.00000
      2      -4.5078      2.00000
      3       1.7435      2.00000
      4       3.0101      2.00000
      5       4.1590      2.00000
      6       6.4919      2.00000
      7       9.3757      2.00000
      8      14.3525      2.00000
      9      17.7020      0.00000
     10      18.5306      0.00000
     11      20.0187      0.00000
     12      24.6903      0.00000
     13      26.1224      0.00000
     14      30.7022      0.00000
     15      34.2123      0.00000
     16      38.4105      0.00000

 k-point     9 :       0.4444    0.1111    0.0000
  band No.  band energies     occupation 
      1      -6.7765      2.00000
      2      -4.5509      2.00000
      3       1.1570      2.00000
      4       2.9598      2.00000
      5       5.3559      2.00000
      6       6.9096      2.00000
      7       9.7804      2.00000
      8      12.6815      2.00000
      9      14.2892      2.00000
     10      17.9258      0.00000
     11      20.3309      0.00000
     12      24.3086      0.00000
     13      25.5876      0.00000
     14      27.4892      0.00000
     15      32.3559      0.00000
     16      34.7480      0.00000

 k-point    10 :       0.2222    0.2222    0.0000
  band No.  band energies     occupation 
      1      -7.6542      2.00000
      2      -5.3360      2.00000
      3       2.3400      2.00000
      4       3.8302      2.00000
      5       4.2222      2.00000
      6       6.6826      2.00000
      7       8.3497      2.00000
      8      11.4667      2.00000
      9      14.8016      0.00000
     10      17.0578      0.00000
     11      19.2866      0.00000
     12      22.5759      0.00000
     13      25.5430      0.00000
     14      30.9101      0.00000
     15      32.2469      0.00000
     16      33.6375      0.00000

 k-point    11 :       0.3333    0.2222    0.0000
  band No.  band energies     occupation 
      1      -5.7558      2.00000
      2      -3.3610      2.00000
      3       1.0548      2.00000
      4       2.1953      2.00000
      5       3.2825      2.00000
      6       5.0867      2.00000
      7       6.4845      2.00000
      8       9.6856      2.00000
      9      14.0112      2.00000
     10      18.3056      0.00000
     11      19.9956      0.00000
     12      22.6070      0.00000
     13      26.7866      0.00000
     14      29.4696      0.00000
     15      32.5598      0.00000
     16      35.4407      0.00000

 k-point    12 :       0.3333    0.3333    0.0000
  band No.  band energies     occupation 
      1      -6.1228      2.00000
      2      -4.5588      2.00000
      3       1.7369      2.00000
      4       2.4083      2.00000
      5       4.4248      2.00000
      6       5.5817      2.00000
      7       7.0762      2.00000
      8      12.3709      2.00000
      9      13.1140      2.00000
     10      18.5331      0.00000
     11      21.4176      0.00000
     12      24.0622      0.00000
     13      27.9036      0.00000
     14      28.2482      0.00000
     15      30.6824      0.00000
     16      32.9208      0.00000

 k-point    13 :       0.0000    0.0000    0.2000
  band No.  band energies     occupation 
      1     -10.9087      2.00000
      2      -6.7827      2.00000
      3       2.6532      2.00000
      4       6.3414      2.00000
      5       9.2541      2.00000
      6       9.8669      2.00000
      7      13.7212      2.00000
      8      14.8516      0.00000
      9      17.9569      0.00000
     10      21.4080      0.00000
     11      22.6415      0.00000
     12      23.9520      0.00000
     13      25.7789      0.00000
     14      26.8546      0.00000
     15      30.2715      0.00000
     16      31.8381      0.00000

 k-point    14 :       0.1111    0.0000    0.2000
  band No.  band energies     occupation 
      1     -10.3137      2.00000
      2      -6.4819      2.00000
      3       1.8003      2.00000
      4       6.4907      2.00000
      5       7.4048      2.00000
      6       8.0952      2.00000
      7      11.5155      2.00000
      8      13.3472      2.00000
      9      16.3036      0.00000
     10      19.6417      0.00000
     11      21.5296      0.00000
     12      22.3113      0.00000
     13      23.3373      0.00000
     14      25.2518      0.00000
     15      26.1772      0.00000
     16      31.1688      0.00000

 k-point    15 :       0.2222    0.0000    0.2000
  band No.  band energies     occupation 
      1      -8.5152      2.00000
      2      -6.1701      2.00000
      3       1.9103      2.00000
      4       5.0565      2.00000
      5       6.5049      2.00000
      6       9.5477      2.00000
      7      10.5471      2.00000
      8      12.9906      2.00000
      9      16.1808      0.00000
     10      18.2621      0.00000
     11      20.2022      0.00000
     12      21.5250      0.00000
     13      23.9509      0.00000
     14      26.1997      0.00000
     15      29.0165      0.00000
     16      32.1598      0.00000

 k-point    16 :       0.3333    0.0000    0.2000
  band No.  band energies     occupation 
      1      -9.2046      2.00000
      2      -6.1182      2.00000
      3       1.6759      2.00000
      4       3.6200      2.00000
      5       4.8630      2.00000
      6       7.4100      2.00000
      7      12.3281      2.00000
      8      12.7701      2.00000
      9      14.1413      2.00000
     10      16.3038      0.00000
     11      20.4185      0.00000
     12      21.8159      0.00000
     13      24.6908      0.00000
     14      28.6066      0.00000
     15      29.8919      0.00000
     16      34.4787      0.00000

 k-point    17 :       0.4444    0.0000    0.2000
  band No.  band energies     occupation 
      1      -7.1468      2.00000
      2      -5.3236      2.00000
      3       1.2099      2.00000
      4       2.3281      2.00000
      5       6.2907      2.00000
      6       7.6019      2.00000
      7      10.5140      2.00000
      8      12.1673      2.00000
      9      14.9648      0.00000
     10      17.2610      0.00000
     11      18.4507      0.00000
     12      22.0785      0.00000
     13      24.4246      0.00000
     14      27.6689      0.00000
     15      31.4770      0.00000
     16      36.0033      0.00000

 k-point    18 :       0.1111    0.1111    0.2000
  band No.  band energies     occupation 
      1     -10.0055      2.00000
      2      -5.2233      2.00000
      3       2.1603      2.00000
      4       6.1014      2.00000
      5       8.0885      2.00000
      6      10.2201      2.00000
      7      11.9029      2.00000
      8      14.2130      2.00000
      9      16.8673      0.00000
     10      18.3619      0.00000
     11      21.6931      0.00000
     12      23.0735      0.00000
     13      26.3311      0.00000
     14      28.3598      0.00000
     15      32.0339      0.00000
     16      34.5012      0.00000

 k-point    19 :       0.2222    0.1111    0.2000
  band No.  band energies     occupation 
      1      -8.8124      2.00000
      2      -5.0005      2.00000
      3       3.1926      2.00000
      4       3.9826      2.00000
      5       5.0980      2.00000
      6       6.8343      2.00000
      7      10.1933      2.00000
      8      12.3500      2.00000
      9      15.3103      0.00000
     10      15.9615      0.00000
     11      18.3238      0.00000
     12      21.8602      0.00000
     13      24.1365      0.00000
     14      25.0341      0.00000
     15      28.0869      0.00000
     16      30.6912      0.00000

 k-point    20 :       0.3333    0.1111    0.2000
  band No.  band energies     occupation 
      1      -8.9613      2.00000
      2      -3.5015      2.00000
      3       1.8204      2.00000
      4       2.9248      2.00000
      5       4.1982      2.00000
      6       5.7072      2.00000
      7       9.5889      2.00000
      8      13.7671      2.00000
      9      15.8362      0.00000
     10      17.9820      0.00000
     11      20.9622      0.00000
     12      21.7301      0.00000
     13      26.1315      0.00000
     14      28.3312      0.00000
     15      33.4020      0.00000
     16      34.0056      0.00000

 k-point    21 :       0.4444    0.1111    0.2000
  band No.  band energies     occupation 
      1      -7.9015      2.00000
      2      -5.3849      2.00000
      3       1.0214      2.00000
      4       2.8175      2.00000
      5       4.6673      2.00000
      6       7.2576      2.00000
      7      10.1358      2.00000
      8      12.6528      2.00000
      9      17.8620      0.00000
     10      19.4702      0.00000
     11      20.3891      0.00000
     12      22.5396      0.00000
     13      25.2182      0.00000
     14      28.8288      0.00000
     15      32.3566      0.00000
     16      35.2547      0.00000

 k-point    22 :       0.2222    0.2222    0.2000
  band No.  band energies     occupation 
      1      -7.9466      2.00000
      2      -4.5941      2.00000
      3       2.6383      2.00000
      4       5.3704      2.00000
      5       6.6854      2.00000
      6       7.0696      2.00000
      7      10.4309      2.00000
      8      13.6935      2.00000
      9      16.3046      0.00000
     10      17.9601      0.00000
     11      20.7329      0.00000
     12      24.6778      0.00000
     13      27.4305      0.00000
     14      29.5714      0.00000
     15      31.6332      0.00000
     16      35.3653      0.00000

 k-point    23 :       0.3333    0.2222    0.2000
  band No.  band energies     occupation 
      1      -5.9357      2.00000
      2      -4.3414      2.00000
      3       0.7886      2.00000
      4       2.7520      2.00000
      5       3.2455      2.00000
      6       5.8698      2.00000
      7       7.4738      2.00000
      8      12.0959      2.00000
      9      15.3672      0.00000
     10      19.5229      0.00000
     11      21.4039      0.00000
     12      23.3100      0.00000
     13      26.8742      0.00000
     14      27.6590      0.00000
     15      29.3322      0.00000
     16      36.2986      0.00000

 k-point    24 :       0.3333    0.3333    0.2000
  band No.  band energies     occupation 
      1      -6.0285      2.00000
      2      -3.9853      2.00000
      3       1.9859      2.00000
      4       2.7375      2.00000
      5       3.6673      2.00000
      6       6.5708      2.00000
[...]
           4.372349    -0.000000     0.000000
           0.000000     4.372350     0.000000
           0.000000     0.000000     4.572975
 ------------------------------------------------------


 PIEZOELECTRIC TENSOR  for field in x, y, z        (e  Angst)
          XX          YY          ZZ          XY          YZ          ZX
  --------------------------------------------------------------------------------
  x     0.00017     0.00003     0.00006    -0.00000    -0.00000    -0.89741
  y    -0.00002     0.00005    -0.00002    -0.00000    -0.89740    -0.00000
  z    -0.71146    -0.71146     1.11431    -0.00000    -0.00000    -0.00000

 PIEZOELECTRIC TENSOR  for field in x, y, z        (C/m^2)
          XX          YY          ZZ          XY          YZ          ZX
  --------------------------------------------------------------------------------
  x    -0.00000     0.00000     0.00000     0.00000     0.00000    -0.33748
  y     0.00000    -0.00000     0.00000     0.00000    -0.33748     0.00000
  z    -0.26756    -0.26756     0.41906     0.00000     0.00000     0.00000

 BORN EFFECTIVE CHARGES (in e, cummulative output)
 -------------------------------------------------
 ion    1
    1     2.51993     0.00002    -0.00000
    2    -0.00000     2.51991     0.00001
    3     0.00000     0.00000     2.67381
 ion    2
    1     2.51993    -0.00002    -0.00000
    2    -0.00000     2.51994    -0.00001
    3     0.00000    -0.00000     2.67381
 ion    3
    1    -2.51993    -0.00001     0.00000
    2    -0.00000    -2.51996     0.00000
    3    -0.00000    -0.00000    -2.67381
 ion    4
    1    -2.51993     0.00001     0.00000
    2    -0.00000    -2.51989     0.00001
    3    -0.00000     0.00000    -2.67381

 INTERNAL STRAIN TENSOR FOR ION    1 for displacements in x,y,z  (eV/Angst):
          X           Y           Z          XY          YZ          ZX
  --------------------------------------------------------------------------------
  x     0.00000    -0.00000    -0.00000     7.65913    -0.00000     4.65868
  y     7.65913    -7.65913     0.00000     0.00000     4.35231     0.00000
  z     4.99006     4.99007   -11.02235     0.00000    -0.00000     0.00000

 INTERNAL STRAIN TENSOR FOR ION    2 for displacements in x,y,z  (eV/Angst):
          X           Y           Z          XY          YZ          ZX
  --------------------------------------------------------------------------------
  x     0.00000    -0.00000    -0.00000    -7.65913    -0.00000     4.65868
  y    -7.65913     7.65913     0.00000     0.00000     4.35231     0.00000
  z     4.99006     4.99007   -11.02235     0.00000     0.00000     0.00000

 INTERNAL STRAIN TENSOR FOR ION    3 for displacements in x,y,z  (eV/Angst):
          X           Y           Z          XY          YZ          ZX
  --------------------------------------------------------------------------------
  x     0.00000     0.00000     0.00000     9.69130     0.00000    -4.72599
  y     9.69130    -9.69131     0.00000     0.00000    -4.85869     0.00000
  z    -4.96923    -4.96923    10.98692     0.00000     0.00000     0.00000

 INTERNAL STRAIN TENSOR FOR ION    4 for displacements in x,y,z  (eV/Angst):
          X           Y           Z          XY          YZ          ZX
  --------------------------------------------------------------------------------
  x     0.00000     0.00000    -0.00000    -9.69130     0.00000    -4.72599
  y    -9.69130     9.69131    -0.00000     0.00000    -4.85869     0.00000
  z    -4.96923    -4.96923    10.98692     0.00000     0.00000     0.00000


--------------------------------------------------------------------------------------------------------



 SECOND DERIVATIVES (NOT SYMMETRIZED)
 ------------------------------------
               1X          1Y          1Z          2X          2Y          2Z          3X          3Y          3Z          4X          4Y          4Z 
  1X   -15.093225    0.000000   -0.000000    0.631945    0.000000    0.000000    1.560710    0.000000    0.000000   12.900570    0.000000    0.000000
  1Y     0.000000  -15.093229    0.000000    0.000000    0.631945    0.000000    0.000000    1.560710    0.000000    0.000000   12.900574    0.000000
  1Z     0.000000   -0.000000  -20.696154    0.000000    0.000000    8.500076    0.000000    0.000000    5.798187    0.000000    0.000000    6.397890
  2X     0.631945    0.000000   -0.000000  -15.093225    0.000000    0.000000   12.900570    0.000000    0.000000    1.560710    0.000000    0.000000
  2Y     0.000000    0.631945    0.000000    0.000000  -15.093229    0.000000    0.000000   12.900574    0.000000    0.000000    1.560710    0.000000
  2Z     0.000000    0.000000    8.500076    0.000000    0.000000  -20.696154    0.000000    0.000000    6.397890    0.000000   -0.000000    5.798187
  3X     1.559083    0.000000    0.000000   12.898916    0.000000    0.000000  -15.169732    0.000000    0.000000    0.711732    0.000000   -0.000000
  3Y     0.000000    1.559083   -0.000000    0.000000   12.898920    0.000000    0.000000  -15.169736    0.000000    0.000000    0.711732    0.000000
  3Z     0.000000   -0.000000    5.815151    0.000000    0.000000    6.399309    0.000000   -0.000000  -19.218143    0.000000    0.000000    7.003684
  4X    12.898916    0.000000    0.000000    1.559083    0.000000    0.000000    0.711732   -0.000000    0.000000  -15.169732    0.000000    0.000000
  4Y     0.000000   12.898920    0.000000    0.000000    1.559083    0.000000    0.000000    0.711732    0.000000   -0.000000  -15.169736    0.000000
  4Z     0.000000    0.000000    6.399309    0.000000    0.000000    5.815151    0.000000   -0.000000    7.003684   -0.000000    0.000000  -19.218143


 Eigenvectors and eigenvalues of the dynamical matrix
 ----------------------------------------------------


   1 f  =   21.401214 THz   134.467796 2PiTHz  713.867652 cm-1    88.508340 meV
             X         Y         Z           dx          dy          dz
      1.565022  0.903568  2.513986    -0.000000    0.000000   -0.027173  
      1.565022 -0.903568  0.003359    -0.000000    0.000000    0.027173  
      1.565022  0.903568  0.599191     0.000000   -0.000000   -0.706584  
      1.565022 -0.903568  3.109818     0.000000   -0.000000    0.706584  

   2 f  =   19.579867 THz   123.023932 2PiTHz  653.114040 cm-1    80.975850 meV
             X         Y         Z           dx          dy          dz
      1.565022  0.903568  2.513986    -0.000000    0.413333   -0.000000  
      1.565022 -0.903568  0.003359    -0.000000    0.413333    0.000000  
      1.565022  0.903568  0.599191     0.000000   -0.573721    0.000000  
      1.565022 -0.903568  3.109818     0.000000   -0.573721    0.000000  

   3 f  =   19.579864 THz   123.023915 2PiTHz  653.113948 cm-1    80.975838 meV
             X         Y         Z           dx          dy          dz
      1.565022  0.903568  2.513986    -0.413333   -0.000000    0.000000  
      1.565022 -0.903568  0.003359    -0.413333   -0.000000    0.000000  
      1.565022  0.903568  0.599191     0.573721    0.000000   -0.000000  
      1.565022 -0.903568  3.109818     0.573721    0.000000   -0.000000  

   4 f  =   19.171609 THz   120.458772 2PiTHz  639.496019 cm-1    79.287430 meV
             X         Y         Z           dx          dy          dz
      1.565022  0.903568  2.513986     0.000000   -0.378386    0.000000  
      1.565022 -0.903568  0.003359    -0.000000    0.378386   -0.000000  
      1.565022  0.903568  0.599191     0.000000   -0.597347   -0.000000  
      1.565022 -0.903568  3.109818    -0.000000    0.597347   -0.000000  

   5 f  =   19.171606 THz   120.458755 2PiTHz  639.495929 cm-1    79.287419 meV
             X         Y         Z           dx          dy          dz
      1.565022  0.903568  2.513986     0.378386    0.000000   -0.000000  
      1.565022 -0.903568  0.003359    -0.378386   -0.000000   -0.000000  
      1.565022  0.903568  0.599191     0.597347    0.000000    0.000000  
      1.565022 -0.903568  3.109818    -0.597347   -0.000000    0.000000  

   6 f  =   17.991370 THz   113.043109 2PiTHz  600.127474 cm-1    74.406351 meV
             X         Y         Z           dx          dy          dz
      1.565022  0.903568  2.513986     0.000000    0.000000    0.413098  
      1.565022 -0.903568  0.003359    -0.000000   -0.000000    0.413098  
      1.565022  0.903568  0.599191     0.000000    0.000000   -0.573891  
      1.565022 -0.903568  3.109818    -0.000000   -0.000000   -0.573891  

   7 f  =   16.253613 THz   102.124464 2PiTHz  542.162166 cm-1    67.219566 meV
             X         Y         Z           dx          dy          dz
      1.565022  0.903568  2.513986     0.000000   -0.000000   -0.706584  
      1.565022 -0.903568  0.003359    -0.000000    0.000000    0.706584  
      1.565022  0.903568  0.599191     0.000000   -0.000000    0.027173  
      1.565022 -0.903568  3.109818    -0.000000    0.000000   -0.027173  

   8 f  =    7.219216 THz    45.359670 2PiTHz  240.807110 cm-1    29.856287 meV
             X         Y         Z           dx          dy          dz
      1.565022  0.903568  2.513986     0.000000    0.597347    0.000000  
      1.565022 -0.903568  0.003359    -0.000000   -0.597347    0.000000  
      1.565022  0.903568  0.599191    -0.000000   -0.378386    0.000000  
      1.565022 -0.903568  3.109818     0.000000    0.378386    0.000000  

   9 f  =    7.219215 THz    45.359664 2PiTHz  240.807076 cm-1    29.856283 meV
             X         Y         Z           dx          dy          dz
      1.565022  0.903568  2.513986     0.597347   -0.000000    0.000000  
      1.565022 -0.903568  0.003359    -0.597347    0.000000   -0.000000  
      1.565022  0.903568  0.599191    -0.378386    0.000000    0.000000  
      1.565022 -0.903568  3.109818     0.378386   -0.000000    0.000000  

  10 f/i=    0.001053 THz     0.006619 2PiTHz    0.035138 cm-1     0.004357 meV
             X         Y         Z           dx          dy          dz
      1.565022  0.903568  2.513986    -0.530916   -0.217449   -0.000000  
      1.565022 -0.903568  0.003359    -0.530916   -0.217449   -0.000000  
      1.565022  0.903568  0.599191    -0.382495   -0.156660   -0.000000  
      1.565022 -0.903568  3.109818    -0.382495   -0.156660   -0.000000  

  11 f/i=    0.001053 THz     0.006619 2PiTHz    0.035138 cm-1     0.004357 meV
             X         Y         Z           dx          dy          dz
      1.565022  0.903568  2.513986    -0.217449    0.530916    0.000000  
      1.565022 -0.903568  0.003359    -0.217449    0.530916    0.000000  
      1.565022  0.903568  0.599191    -0.156660    0.382495    0.000000  
      1.565022 -0.903568  3.109818    -0.156660    0.382495    0.000000  

  12 f/i=    0.006424 THz     0.040363 2PiTHz    0.214280 cm-1     0.026567 meV
             X         Y         Z           dx          dy          dz
      1.565022  0.903568  2.513986     0.000000    0.000000   -0.573891  
      1.565022 -0.903568  0.003359     0.000000    0.000000   -0.573891  
      1.565022  0.903568  0.599191     0.000000    0.000000   -0.413098  
      1.565022 -0.903568  3.109818     0.000000    0.000000   -0.413098  

 Eigenvectors after division by SQRT(mass)

 Eigenvectors and eigenvalues of the dynamical matrix
 ----------------------------------------------------


   1 f  =   21.401214 THz   134.467796 2PiTHz  713.867652 cm-1    88.508340 meV
             X         Y         Z           dx          dy          dz
      1.565022  0.903568  2.513986    -0.000000    0.000000   -0.005231  
      1.565022 -0.903568  0.003359    -0.000000    0.000000    0.005231  
      1.565022  0.903568  0.599191     0.000000   -0.000000   -0.188836  
      1.565022 -0.903568  3.109818     0.000000   -0.000000    0.188836  

   2 f  =   19.579867 THz   123.023932 2PiTHz  653.114040 cm-1    80.975850 meV
             X         Y         Z           dx          dy          dz
      1.565022  0.903568  2.513986    -0.000000    0.079574   -0.000000  
      1.565022 -0.903568  0.003359    -0.000000    0.079574    0.000000  
      1.565022  0.903568  0.599191     0.000000   -0.153328    0.000000  
      1.565022 -0.903568  3.109818     0.000000   -0.153328    0.000000  

   3 f  =   19.579864 THz   123.023915 2PiTHz  653.113948 cm-1    80.975838 meV
             X         Y         Z           dx          dy          dz
      1.565022  0.903568  2.513986    -0.079574   -0.000000    0.000000  
      1.565022 -0.903568  0.003359    -0.079574   -0.000000    0.000000  
      1.565022  0.903568  0.599191     0.153328    0.000000   -0.000000  
      1.565022 -0.903568  3.109818     0.153328    0.000000   -0.000000  

   4 f  =   19.171609 THz   120.458772 2PiTHz  639.496019 cm-1    79.287430 meV
             X         Y         Z           dx          dy          dz
      1.565022  0.903568  2.513986     0.000000   -0.072846    0.000000  
      1.565022 -0.903568  0.003359    -0.000000    0.072846   -0.000000  
      1.565022  0.903568  0.599191     0.000000   -0.159642   -0.000000  
      1.565022 -0.903568  3.109818    -0.000000    0.159642   -0.000000  

   5 f  =   19.171606 THz   120.458755 2PiTHz  639.495929 cm-1    79.287419 meV
             X         Y         Z           dx          dy          dz
      1.565022  0.903568  2.513986     0.072846    0.000000   -0.000000  
      1.565022 -0.903568  0.003359    -0.072846   -0.000000   -0.000000  
      1.565022  0.903568  0.599191     0.159642    0.000000    0.000000  
      1.565022 -0.903568  3.109818    -0.159642   -0.000000    0.000000  

   6 f  =   17.991370 THz   113.043109 2PiTHz  600.127474 cm-1    74.406351 meV
             X         Y         Z           dx          dy          dz
      1.565022  0.903568  2.513986     0.000000    0.000000    0.079529  
      1.565022 -0.903568  0.003359    -0.000000   -0.000000    0.079529  
      1.565022  0.903568  0.599191     0.000000    0.000000   -0.153373  
      1.565022 -0.903568  3.109818    -0.000000   -0.000000   -0.153373  

   7 f  =   16.253613 THz   102.124464 2PiTHz  542.162166 cm-1    67.219566 meV
             X         Y         Z           dx          dy          dz
      1.565022  0.903568  2.513986     0.000000   -0.000000   -0.136030  
      1.565022 -0.903568  0.003359    -0.000000    0.000000    0.136030  
      1.565022  0.903568  0.599191     0.000000   -0.000000    0.007262  
      1.565022 -0.903568  3.109818    -0.000000    0.000000   -0.007262  

   8 f  =    7.219216 THz    45.359670 2PiTHz  240.807110 cm-1    29.856287 meV
             X         Y         Z           dx          dy          dz
      1.565022  0.903568  2.513986     0.000000    0.115000    0.000000  
      1.565022 -0.903568  0.003359    -0.000000   -0.115000    0.000000  
      1.565022  0.903568  0.599191    -0.000000   -0.101124    0.000000  
      1.565022 -0.903568  3.109818     0.000000    0.101124    0.000000  

   9 f  =    7.219215 THz    45.359664 2PiTHz  240.807076 cm-1    29.856283 meV
             X         Y         Z           dx          dy          dz
      1.565022  0.903568  2.513986     0.115000   -0.000000    0.000000  
      1.565022 -0.903568  0.003359    -0.115000    0.000000   -0.000000  
      1.565022  0.903568  0.599191    -0.101124    0.000000    0.000000  
      1.565022 -0.903568  3.109818     0.101124   -0.000000    0.000000  

  10 f/i=    0.001053 THz     0.006619 2PiTHz    0.035138 cm-1     0.004357 meV
             X         Y         Z           dx          dy          dz
      1.565022  0.903568  2.513986    -0.102211   -0.041863   -0.000000  
      1.565022 -0.903568  0.003359    -0.102211   -0.041863   -0.000000  
      1.565022  0.903568  0.599191    -0.102222   -0.041868   -0.000000  
      1.565022 -0.903568  3.109818    -0.102222   -0.041868   -0.000000  

  11 f/i=    0.001053 THz     0.006619 2PiTHz    0.035138 cm-1     0.004357 meV
             X         Y         Z           dx          dy          dz
      1.565022  0.903568  2.513986    -0.041863    0.102211    0.000000  
      1.565022 -0.903568  0.003359    -0.041863    0.102211    0.000000  
      1.565022  0.903568  0.599191    -0.041868    0.102222    0.000000  
      1.565022 -0.903568  3.109818    -0.041868    0.102222    0.000000  

  12 f/i=    0.006424 THz     0.040363 2PiTHz    0.214280 cm-1     0.026567 meV
             X         Y         Z           dx          dy          dz
      1.565022  0.903568  2.513986     0.000000    0.000000   -0.110484  
      1.565022 -0.903568  0.003359     0.000000    0.000000   -0.110484  
      1.565022  0.903568  0.599191     0.000000    0.000000   -0.110401  
      1.565022 -0.903568  3.109818     0.000000    0.000000   -0.110401  



--------------------------------------------------------------------------------------------------------




 MACROSCOPIC STATIC DIELECTRIC TENSOR IONIC CONTRIBUTION
 ------------------------------------------------------
           3.730538     0.000000    -0.000003
           0.000000     3.730524    -0.000006
          -0.000003    -0.000006     4.975822
 ------------------------------------------------------


 ELASTIC MODULI IONIC CONTR (kBar)
 Direction    XX          YY          ZZ          XY          YZ          ZX
 --------------------------------------------------------------------------------
 XX        -603.0022    297.3864    337.6938      0.0000     -0.0000     -0.0000
 YY         297.3864   -603.0025    337.6939     -0.0000      0.0000      0.0000
 ZZ         337.6938    337.6939   -746.2775      0.0000      0.0000      0.0000
 XY           0.0000     -0.0000      0.0000   -450.1944     -0.0000     -0.0000
 YZ          -0.0000      0.0000      0.0000     -0.0000   -110.3291     -0.0000
 ZX          -0.0000      0.0000      0.0000     -0.0000     -0.0000   -114.5294
 --------------------------------------------------------------------------------


 PIEZOELECTRIC TENSOR IONIC CONTR  for field in x, y, z        (C/m^2)
          XX          YY          ZZ          XY          YZ          ZX
  --------------------------------------------------------------------------------
  x    -0.00000     0.00000     0.00000    -0.00000     0.00000     0.61506
  y    -0.00002     0.00002     0.00000     0.00000     0.60367     0.00000
  z     0.82050     0.82050    -1.81324     0.00000     0.00000     0.00000


--------------------------------------------------------------------------------------------------------


     LOOP+:  cpu time 3820.2520: real time 3928.9511
    4ORBIT:  cpu time    0.0000: real time    0.0000



 total charge     

# of ion       s       p       d       tot
------------------------------------------
    1        0.361   0.427   0.000   0.788
    2        0.358   0.428   0.000   0.786
    3        1.214   2.605   0.000   3.819
    4        1.213   2.604   0.000   3.817
--------------------------------------------------
tot          3.146   6.064   0.000   9.210


 total amount of memory used by VASP MPI-rank0    46798. kBytes
=======================================================================

   base      :      30000. kBytes
   nonl-proj :      11362. kBytes
   fftplans  :        954. kBytes
   grid      :       3051. kBytes
   one-center:         12. kBytes
   wavefun   :       1419. kBytes

  
  
 General timing and accounting informations for this job:
 ========================================================
  
                  Total CPU time used (sec):     3823.404
                            User time (sec):     3802.388
                          System time (sec):       21.016
                         Elapsed time (sec):     3944.447
  
                   Maximum memory used (kb):      249228.
                   Average memory used (kb):           0.
  
                          Minor page faults:      8207950
                          Major page faults:            7
                 Voluntary context switches:         2160
