<?xml version="1.0" encoding="ISO-8859-1"?>
<modeling>
 <generator>
  <i name="program" type="string">vasp </i>
  <i name="version" type="string">5.4.1  </i>
  <i name="subversion" type="string">24Jun15 (build Feb  4 2017 17:53:50) complex                          parallel </i>
  <i name="platform" type="string">IFC91_ompi </i>
  <i name="date" type="string">2018 11 17 </i>
  <i name="time" type="string">18:50:10 </i>
 </generator>
 <incar>
  <i type="string" name="PREC">normal</i>
  <i type="string" name="ALGO"> D</i>
  <i type="int" name="NSW">     0</i>
  <i type="int" name="ISIF">     2</i>
  <i type="int" name="ISYM">     0</i>
  <i name="ENCUT">   1250.00000000</i>
  <i type="int" name="NBANDS">   276</i>
  <i type="int" name="NEDOS">  5000</i>
  <i name="SIGMA">      0.10000000</i>
  <i type="logical" name="LWAVE"> F  </i>
  <i type="logical" name="LVTOT"> F  </i>
  <i type="logical" name="LVHAR"> F  </i>
  <i type="logical" name="LOPTICS"> T  </i>
  <v type="int" name="KPOINT_BSE">    -1     0     0     0</v>
  <i type="string" name="METAGGA"> Mbj</i>
 </incar>
 <kpoints>
  <generation param="Gamma">
   <v type="int" name="divisions">       6        6        3 </v>
   <v name="usershift">      0.00000000       0.00000000       0.00000000 </v>
   <v name="genvec1">      0.16666667       0.00000000       0.00000000 </v>
   <v name="genvec2">      0.00000000       0.16666667       0.00000000 </v>
   <v name="genvec3">      0.00000000       0.00000000       0.33333333 </v>
   <v name="shift">      0.00000000       0.00000000       0.00000000 </v>
  </generation>
  <varray name="kpointlist" >
   <v>       0.00000000       0.00000000       0.00000000 </v>
   <v>       0.16666667       0.00000000       0.00000000 </v>
   <v>       0.33333333       0.00000000       0.00000000 </v>
   <v>       0.50000000       0.00000000       0.00000000 </v>
   <v>       0.00000000       0.16666667       0.00000000 </v>
   <v>       0.16666667       0.16666667       0.00000000 </v>
   <v>       0.33333333       0.16666667       0.00000000 </v>
   <v>       0.50000000       0.16666667       0.00000000 </v>
   <v>      -0.33333333       0.16666667       0.00000000 </v>
   <v>      -0.16666667       0.16666667       0.00000000 </v>
   <v>       0.00000000       0.33333333       0.00000000 </v>
   <v>       0.16666667       0.33333333       0.00000000 </v>
   <v>       0.33333333       0.33333333       0.00000000 </v>
   <v>       0.50000000       0.33333333       0.00000000 </v>
   <v>      -0.33333333       0.33333333       0.00000000 </v>
   <v>      -0.16666667       0.33333333       0.00000000 </v>
   <v>       0.00000000       0.50000000       0.00000000 </v>
   <v>       0.16666667       0.50000000       0.00000000 </v>
   <v>       0.33333333       0.50000000       0.00000000 </v>
   <v>       0.50000000       0.50000000       0.00000000 </v>
   <v>       0.00000000       0.00000000       0.33333333 </v>
   <v>       0.16666667       0.00000000       0.33333333 </v>
   <v>       0.33333333       0.00000000       0.33333333 </v>
   <v>       0.50000000       0.00000000       0.33333333 </v>
   <v>      -0.33333333       0.00000000       0.33333333 </v>
   <v>      -0.16666667       0.00000000       0.33333333 </v>
   <v>       0.00000000       0.16666667       0.33333333 </v>
   <v>       0.16666667       0.16666667       0.33333333 </v>
   <v>       0.33333333       0.16666667       0.33333333 </v>
   <v>       0.50000000       0.16666667       0.33333333 </v>
   <v>      -0.33333333       0.16666667       0.33333333 </v>
   <v>      -0.16666667       0.16666667       0.33333333 </v>
   <v>       0.00000000       0.33333333       0.33333333 </v>
   <v>       0.16666667       0.33333333       0.33333333 </v>
   <v>       0.33333333       0.33333333       0.33333333 </v>
   <v>       0.50000000       0.33333333       0.33333333 </v>
   <v>      -0.33333333       0.33333333       0.33333333 </v>
   <v>      -0.16666667       0.33333333       0.33333333 </v>
   <v>       0.00000000       0.50000000       0.33333333 </v>
   <v>       0.16666667       0.50000000       0.33333333 </v>
   <v>       0.33333333       0.50000000       0.33333333 </v>
   <v>       0.50000000       0.50000000       0.33333333 </v>
   <v>      -0.33333333       0.50000000       0.33333333 </v>
   <v>      -0.16666667       0.50000000       0.33333333 </v>
   <v>       0.00000000      -0.33333333       0.33333333 </v>
   <v>       0.16666667      -0.33333333       0.33333333 </v>
   <v>       0.33333333      -0.33333333       0.33333333 </v>
   <v>       0.50000000      -0.33333333       0.33333333 </v>
   <v>      -0.33333333      -0.33333333       0.33333333 </v>
   <v>      -0.16666667      -0.33333333       0.33333333 </v>
   <v>       0.00000000      -0.16666667       0.33333333 </v>
   <v>       0.16666667      -0.16666667       0.33333333 </v>
   <v>       0.33333333      -0.16666667       0.33333333 </v>
   <v>       0.50000000      -0.16666667       0.33333333 </v>
   <v>      -0.33333333      -0.16666667       0.33333333 </v>
   <v>      -0.16666667      -0.16666667       0.33333333 </v>
  </varray>
  <varray name="weights" >
   <v>       0.00925926 </v>
   <v>       0.01851852 </v>
   <v>       0.01851852 </v>
   <v>       0.00925926 </v>
   <v>       0.01851852 </v>
   <v>       0.01851852 </v>
   <v>       0.01851852 </v>
   <v>       0.01851852 </v>
   <v>       0.01851852 </v>
   <v>       0.01851852 </v>
   <v>       0.01851852 </v>
   <v>       0.01851852 </v>
   <v>       0.01851852 </v>
   <v>       0.01851852 </v>
   <v>       0.01851852 </v>
   <v>       0.01851852 </v>
   <v>       0.00925926 </v>
   <v>       0.01851852 </v>
   <v>       0.01851852 </v>
   <v>       0.00925926 </v>
   <v>       0.01851852 </v>
   <v>       0.01851852 </v>
   <v>       0.01851852 </v>
   <v>       0.01851852 </v>
   <v>       0.01851852 </v>
   <v>       0.01851852 </v>
   <v>       0.01851852 </v>
   <v>       0.01851852 </v>
   <v>       0.01851852 </v>
   <v>       0.01851852 </v>
   <v>       0.01851852 </v>
   <v>       0.01851852 </v>
   <v>       0.01851852 </v>
   <v>       0.01851852 </v>
   <v>       0.01851852 </v>
   <v>       0.01851852 </v>
   <v>       0.01851852 </v>
   <v>       0.01851852 </v>
   <v>       0.01851852 </v>
   <v>       0.01851852 </v>
   <v>       0.01851852 </v>
   <v>       0.01851852 </v>
   <v>       0.01851852 </v>
   <v>       0.01851852 </v>
   <v>       0.01851852 </v>
   <v>       0.01851852 </v>
   <v>       0.01851852 </v>
   <v>       0.01851852 </v>
   <v>       0.01851852 </v>
   <v>       0.01851852 </v>
   <v>       0.01851852 </v>
   <v>       0.01851852 </v>
   <v>       0.01851852 </v>
   <v>       0.01851852 </v>
   <v>       0.01851852 </v>
   <v>       0.01851852 </v>
  </varray>
 </kpoints>
 <parameters>
  <separator name="general" >
   <i type="string" name="SYSTEM">unknown system</i>
   <i type="logical" name="LCOMPAT"> F  </i>
  </separator>
  <separator name="electronic" >
   <i type="string" name="PREC">normal</i>
   <i name="ENMAX">   1250.00000000</i>
   <i name="ENAUG">    627.11200000</i>
   <i name="EDIFF">      0.00010000</i>
   <i type="int" name="IALGO">    53</i>
   <i type="int" name="IWAVPR">    10</i>
   <i type="int" name="NBANDS">   280</i>
   <i name="NELECT">    138.00000000</i>
   <i type="int" name="TURBO">     0</i>
   <i type="int" name="IRESTART">     0</i>
   <i type="int" name="NREBOOT">     0</i>
   <i type="int" name="NMIN">     0</i>
   <i name="EREF">      0.00000000</i>
   <separator name="electronic smearing" >
    <i type="int" name="ISMEAR">     1</i>
    <i name="SIGMA">      0.10000000</i>
    <i name="KSPACING">      0.50000000</i>
    <i type="logical" name="KGAMMA"> T  </i>
   </separator>
   <separator name="electronic projectors" >
    <i type="logical" name="LREAL"> F  </i>
    <v name="ROPT">      0.00000000      0.00000000      0.00000000      0.00000000</v>
    <i type="int" name="LMAXPAW">  -100</i>
    <i type="int" name="LMAXMIX">     2</i>
    <i type="logical" name="NLSPLINE"> F  </i>
   </separator>
   <separator name="electronic startup" >
    <i type="int" name="ISTART">     0</i>
    <i type="int" name="ICHARG">     2</i>
    <i type="int" name="INIWAV">     1</i>
   </separator>
   <separator name="electronic spin" >
    <i type="int" name="ISPIN">     1</i>
    <i type="logical" name="LNONCOLLINEAR"> F  </i>
    <v name="MAGMOM">      1.00000000      1.00000000      1.00000000      1.00000000      1.00000000      1.00000000      1.00000000      1.00000000      1.00000000      1.00000000      1.00000000      1.00000000      1.00000000      1.00000000      1.00000000      1.00000000      1.00000000      1.00000000</v>
    <i name="NUPDOWN">     -1.00000000</i>
    <i type="logical" name="LSORBIT"> F  </i>
    <v name="SAXIS">      0.00000000      0.00000000      1.00000000</v>
    <i type="logical" name="LSPIRAL"> F  </i>
    <v name="QSPIRAL">      0.00000000      0.00000000      0.00000000</v>
    <i type="logical" name="LZEROZ"> F  </i>
   </separator>
   <separator name="electronic exchange-correlation" >
    <i type="logical" name="LASPH"> F  </i>
    <i type="logical" name="LMETAGGA"> F  </i>
   </separator>
   <separator name="electronic convergence" >
    <i type="int" name="NELM">    60</i>
    <i type="int" name="NELMDL">     0</i>
    <i type="int" name="NELMIN">     2</i>
    <i name="ENINI">   1250.00000000</i>
    <separator name="electronic convergence detail" >
     <i type="logical" name="LDIAG"> T  </i>
     <i type="logical" name="LSUBROT"> F  </i>
     <i name="WEIMIN">      0.00000000</i>
     <i name="EBREAK">      0.00000009</i>
     <i name="DEPER">      0.30000000</i>
     <i type="int" name="NRMM">     4</i>
     <i name="TIME">      0.40000000</i>
    </separator>
   </separator>
   <separator name="electronic mixer" >
    <i name="AMIX">      0.40000000</i>
    <i name="BMIX">      1.00000000</i>
    <i name="AMIN">      0.10000000</i>
    <i name="AMIX_MAG">      1.60000000</i>
    <i name="BMIX_MAG">      1.00000000</i>
    <separator name="electronic mixer details" >
     <i type="int" name="IMIX">     4</i>
     <i type="logical" name="MIXFIRST"> F  </i>
     <i type="int" name="MAXMIX">   -45</i>
     <i name="WC">    100.00000000</i>
     <i type="int" name="INIMIX">     1</i>
     <i type="int" name="MIXPRE">     1</i>
     <i type="int" name="MREMOVE">     5</i>
    </separator>
   </separator>
   <separator name="electronic dipolcorrection" >
    <i type="logical" name="LDIPOL"> F  </i>
    <i type="logical" name="LMONO"> F  </i>
    <i type="int" name="IDIPOL">     0</i>
    <i name="EPSILON">      1.00000000</i>
    <v name="DIPOL">   -100.00000000   -100.00000000   -100.00000000</v>
    <i name="EFIELD">      0.00000000</i>
   </separator>
  </separator>
  <separator name="grids" >
   <i type="int" name="NGX">    42</i>
   <i type="int" name="NGY">    42</i>
   <i type="int" name="NGZ">    80</i>
   <i type="int" name="NGXF">    84</i>
   <i type="int" name="NGYF">    84</i>
   <i type="int" name="NGZF">   160</i>
   <i type="logical" name="ADDGRID"> F  </i>
  </separator>
  <separator name="ionic" >
   <i type="int" name="NSW">     0</i>
   <i type="int" name="IBRION">    -1</i>
   <i type="int" name="ISIF">     2</i>
   <i name="PSTRESS">      0.00000000</i>
   <i name="EDIFFG">      0.00100000</i>
   <i type="int" name="NFREE">     0</i>
   <i name="POTIM">      0.50000000</i>
   <i name="SMASS">     -3.00000000</i>
   <i name="SCALEE">      1.00000000</i>
  </separator>
  <separator name="ionic md" >
   <i name="TEBEG">      0.00010000</i>
   <i name="TEEND">      0.00010000</i>
   <i type="int" name="NBLOCK">     1</i>
   <i type="int" name="KBLOCK">     1</i>
   <i type="int" name="NPACO">   256</i>
   <i name="APACO">     16.00000000</i>
  </separator>
  <separator name="symmetry" >
   <i type="int" name="ISYM">     0</i>
   <i name="SYMPREC">      0.00001000</i>
  </separator>
  <separator name="dos" >
   <i type="logical" name="LORBIT"> T  </i>
   <v name="RWIGS">     -1.00000000     -1.00000000     -1.00000000     -1.00000000</v>
   <i type="int" name="NEDOS">  5000</i>
   <i name="EMIN">     10.00000000</i>
   <i name="EMAX">    -10.00000000</i>
   <i name="EFERMI">      0.00000000</i>
  </separator>
  <separator name="writing" >
   <i type="int" name="NWRITE">     2</i>
   <i type="logical" name="LWAVE"> F  </i>
   <i type="logical" name="LCHARG"> T  </i>
   <i type="logical" name="LPARD"> F  </i>
   <i type="logical" name="LVTOT"> F  </i>
   <i type="logical" name="LVHAR"> F  </i>
   <i type="logical" name="LELF"> F  </i>
   <i type="logical" name="LOPTICS"> T  </i>
   <v name="STM">      0.00000000      0.00000000      0.00000000      0.00000000      0.00000000      0.00000000      0.00000000</v>
  </separator>
  <separator name="performance" >
   <i type="int" name="NPAR">     8</i>
   <i type="int" name="NSIM">     4</i>
   <i type="int" name="NBLK">    -1</i>
   <i type="logical" name="LPLANE"> T  </i>
   <i type="logical" name="LSCALAPACK"> T  </i>
   <i type="logical" name="LSCAAWARE"> F  </i>
   <i type="logical" name="LSCALU"> F  </i>
   <i type="logical" name="LASYNC"> F  </i>
   <i type="logical" name="LORBITALREAL"> F  </i>
  </separator>
  <separator name="miscellaneous" >
   <i type="int" name="IDIOT">     3</i>
   <i type="logical" name="LMUSIC"> F  </i>
   <v name="POMASS">    180.94800000     51.99600000     14.00100000     16.00000000</v>
   <v name="DARWINR">      0.00000000      0.00000000      0.00000000      0.00000000</v>
   <v name="DARWINV">      1.00000000      1.00000000      1.00000000      1.00000000</v>
   <i type="logical" name="LCORR"> T  </i>
  </separator>
  <i type="logical" name="GGA_COMPAT"> T  </i>
  <i type="logical" name="LBERRY"> F  </i>
  <i type="int" name="ICORELEVEL">     0</i>
  <i type="logical" name="LDAU"> F  </i>
  <i type="int" name="I_CONSTRAINED_M">     0</i>
  <separator name="electronic exchange-correlation" >
   <i type="string" name="GGA">--</i>
   <i type="int" name="VOSKOWN">     0</i>
   <i type="logical" name="LHFCALC"> F  </i>
   <i type="string" name="PRECFOCK"></i>
   <i type="logical" name="LSYMGRAD"> F  </i>
   <i type="logical" name="LHFONE"> F  </i>
   <i type="logical" name="LRHFCALC"> F  </i>
   <i type="logical" name="LTHOMAS"> F  </i>
   <i type="logical" name="LMODELHF"> F  </i>
   <i name="ENCUT4O">     -1.00000000</i>
   <i type="int" name="EXXOEP">     0</i>
   <i type="int" name="FOURORBIT">     0</i>
   <i name="AEXX">      0.00000000</i>
   <i name="HFALPHA">      0.00000000</i>
   <i name="MCALPHA">      0.00000000</i>
   <i name="ALDAX">      1.00000000</i>
   <i name="AGGAX">      1.00000000</i>
   <i name="ALDAC">      1.00000000</i>
   <i name="AGGAC">      1.00000000</i>
   <i type="int" name="NKREDX">     1</i>
   <i type="int" name="NKREDY">     1</i>
   <i type="int" name="NKREDZ">     1</i>
   <i type="logical" name="SHIFTRED"> F  </i>
   <i type="logical" name="ODDONLY"> F  </i>
   <i type="logical" name="EVENONLY"> F  </i>
   <i type="int" name="LMAXFOCK">     0</i>
   <i type="int" name="NMAXFOCKAE">     0</i>
   <i type="logical" name="LFOCKAEDFT"> F  </i>
   <i name="HFSCREEN">      0.00000000</i>
   <i name="HFSCREENC">      0.00000000</i>
   <i type="int" name="NBANDSGWLOW">     0</i>
  </separator>
  <separator name="vdW DFT" >
   <i type="logical" name="LUSE_VDW"> F  </i>
   <i name="Zab_VDW">     -0.84910000</i>
   <i name="PARAM1">      0.12340000</i>
   <i name="PARAM2">      1.00000000</i>
   <i name="PARAM3">      0.00000000</i>
  </separator>
  <separator name="model GW" >
   <i type="int" name="MODEL_GW">     0</i>
   <i name="MODEL_EPS0">      6.84410594</i>
   <i name="MODEL_ALPHA">      1.00000000</i>
  </separator>
  <separator name="linear response parameters" >
   <i type="logical" name="LEPSILON"> F  </i>
   <i type="logical" name="LRPA"> F  </i>
   <i type="logical" name="LNABLA"> F  </i>
   <i type="logical" name="LVEL"> F  </i>
   <i type="int" name="KINTER">     0</i>
   <i name="CSHIFT">      0.10000000</i>
   <i name="OMEGAMAX">     -1.00000000</i>
   <i name="DEG_THRESHOLD">      0.00200000</i>
  </separator>
  <separator name="orbital magnetization" >
   <i type="logical" name="NUCIND"> F  </i>
   <v name="MAGPOS">      0.00000000      0.00000000      0.00000000</v>
   <i type="logical" name="LNICSALL"> T  </i>
   <i type="logical" name="ORBITALMAG"> F  </i>
   <i type="logical" name="LMAGBLOCH"> F  </i>
   <i type="logical" name="LCHIMAG"> F  </i>
   <i type="logical" name="LGAUGE"> T  </i>
   <i type="int" name="MAGATOM">     0</i>
   <v name="MAGDIPOL">      0.00000000      0.00000000      0.00000000</v>
   <v name="AVECCONST">      0.00000000      0.00000000      0.00000000</v>
  </separator>
  <separator name="response functions" >
   <i type="logical" name="LADDER"> F  </i>
   <i type="logical" name="LFXC"> F  </i>
   <i type="logical" name="LHARTREE"> T  </i>
   <i type="int" name="IBSE">     0</i>
   <v type="int" name="KPOINT">    -1     0     0     0</v>
   <i type="logical" name="LTCTE"> F  </i>
   <i type="logical" name="LTETE"> F  </i>
   <i type="logical" name="LTRIPLET"> F  </i>
   <i type="logical" name="LFXCEPS"> F  </i>
   <i type="logical" name="LFXHEG"> F  </i>
   <i type="int" name="NATURALO">     0</i>
   <i type="logical" name="L2ORDER"> F  </i>
   <i type="logical" name="LUSEW"> F  </i>
   <i name="ENCUTGW">     -2.00000000</i>
   <i name="ENCUTGWSOFT">     -2.00000000</i>
   <i name="ENCUTLF">     -1.00000000</i>
   <i type="int" name="LMAXMP2">    -1</i>
   <i name="SCISSOR">      0.00000000</i>
   <i type="int" name="NOMEGA">     0</i>
   <i type="int" name="NOMEGAR">     0</i>
   <i type="int" name="NBANDSGW">    -1</i>
   <i type="int" name="NBANDSO">    -1</i>
   <i type="int" name="NBANDSV">    -1</i>
   <i type="int" name="NELM">     1</i>
   <i type="int" name="NELMHF">     1</i>
   <i type="int" name="DIM">     3</i>
   <i type="int" name="ANTIRES">     0</i>
   <i name="OMEGAMAX">    -30.00000000</i>
   <i name="OMEGAMIN">    -30.00000000</i>
   <i name="OMEGATL">   -200.00000000</i>
   <i type="int" name="OMEGAGRID">     0</i>
   <i name="CSHIFT">     -0.10000000</i>
   <i type="logical" name="SELFENERGY"> F  </i>
   <i type="logical" name="LSPECTRAL"> F  </i>
   <i type="logical" name="LSPECTRALGW"> F  </i>
   <i type="logical" name="LSINGLES"> F  </i>
   <i type="logical" name="LFERMIGW"> F  </i>
   <i type="logical" name="ODDONLYGW"> F  </i>
   <i type="logical" name="EVENONLYGW"> F  </i>
   <i type="int" name="NKREDLFX">     1</i>
   <i type="int" name="NKREDLFY">     1</i>
   <i type="int" name="NKREDLFZ">     1</i>
   <i type="int" name="MAXMEM">  1800</i>
   <i type="int" name="TELESCOPE">     0</i>
   <i type="int" name="TAUPAR">     1</i>
   <i type="int" name="OMEGAPAR">    -1</i>
   <i name="LAMBDA">      1.00000000</i>
  </separator>
  <separator name="External order field" >
   <i name="OFIELD_KAPPA">      0.00000000</i>
   <v name="OFIELD_K">      0.00000000      0.00000000      0.00000000</v>
   <i name="OFIELD_Q6_NEAR">      0.00000000</i>
   <i name="OFIELD_Q6_FAR">      0.00000000</i>
   <i name="OFIELD_A">      0.00000000</i>
  </separator>
 </parameters>
 <atominfo>
  <atoms>      18 </atoms>
  <types>       4 </types>
  <array name="atoms" >
   <dimension dim="1">ion</dimension>
   <field type="string">element</field>
   <field type="int">atomtype</field>
   <set>
    <rc><c>Ta</c><c>   1</c></rc>
    <rc><c>Ta</c><c>   1</c></rc>
    <rc><c>Ta</c><c>   1</c></rc>
    <rc><c>Ta</c><c>   1</c></rc>
    <rc><c>Cr</c><c>   2</c></rc>
    <rc><c>Cr</c><c>   2</c></rc>
    <rc><c>N </c><c>   3</c></rc>
    <rc><c>N </c><c>   3</c></rc>
    <rc><c>O </c><c>   4</c></rc>
    <rc><c>O </c><c>   4</c></rc>
    <rc><c>O </c><c>   4</c></rc>
    <rc><c>O </c><c>   4</c></rc>
    <rc><c>O </c><c>   4</c></rc>
    <rc><c>O </c><c>   4</c></rc>
    <rc><c>O </c><c>   4</c></rc>
    <rc><c>O </c><c>   4</c></rc>
    <rc><c>O </c><c>   4</c></rc>
    <rc><c>O </c><c>   4</c></rc>
   </set>
  </array>
  <array name="atomtypes" >
   <dimension dim="1">type</dimension>
   <field type="int">atomspertype</field>
   <field type="string">element</field>
   <field>mass</field>
   <field>valence</field>
   <field type="string">pseudopotential</field>
   <set>
    <rc><c>   4</c><c>Ta</c><c>    180.94800000</c><c>     11.00000000</c><c>  PAW_PBE Ta_pv 07Sep2000               </c></rc>
    <rc><c>   2</c><c>Cr</c><c>     51.99600000</c><c>     12.00000000</c><c>  PAW_PBE Cr_pv 02Aug2007               </c></rc>
    <rc><c>   2</c><c>N </c><c>     14.00100000</c><c>      5.00000000</c><c>  PAW_PBE N 08Apr2002                   </c></rc>
    <rc><c>  10</c><c>O </c><c>     16.00000000</c><c>      6.00000000</c><c>  PAW_PBE O 08Apr2002                   </c></rc>
   </set>
  </array>
 </atominfo>
 <structure name="initialpos" >
  <crystal>
   <varray name="basis" >
    <v>       4.72054000       0.00000000       0.00000000 </v>
    <v>       0.00000000       4.72541300       0.00000000 </v>
    <v>       0.00000000       0.00000000       9.20463400 </v>
   </varray>
   <i name="volume">    205.32317829 </i>
   <varray name="rec_basis" >
    <v>       0.21184017       0.00000000       0.00000000 </v>
    <v>       0.00000000       0.21162171       0.00000000 </v>
    <v>       0.00000000       0.00000000       0.10864093 </v>
   </varray>
  </crystal>
  <varray name="positions" >
   <v>       0.74409900       0.01374700       0.33761100 </v>
   <v>       0.74409900       0.01374700       0.66238900 </v>
   <v>       0.25590100       0.51374700       0.16238900 </v>
   <v>       0.25590100       0.51374700       0.83761100 </v>
   <v>       0.75008400       0.99352300       0.00000000 </v>
   <v>       0.24991600       0.49352300       0.50000000 </v>
   <v>       0.45215600       0.69554800       0.00000000 </v>
   <v>       0.54784400       0.19554800       0.50000000 </v>
   <v>       0.94414100       0.80005200       0.50000000 </v>
   <v>       0.94650300       0.80009200       0.83325900 </v>
   <v>       0.94650300       0.80009200       0.16674100 </v>
   <v>       0.05349700       0.30009200       0.33325900 </v>
   <v>       0.05349700       0.30009200       0.66674100 </v>
   <v>       0.05585900       0.30005200       0.00000000 </v>
   <v>       0.44566800       0.69160000       0.33239200 </v>
   <v>       0.44566800       0.69160000       0.66760800 </v>
   <v>       0.55433200       0.19160000       0.16760800 </v>
   <v>       0.55433200       0.19160000       0.83239200 </v>
  </varray>
 </structure>
 <calculation>
  <scstep>
   <i name="CMBJ">      1.00000000 </i>
   <time name="total">  463.26  463.15</time>
   <energy>
    <i name="alphaZ">    862.02237475 </i>
    <i name="ewald">  -9587.46680526 </i>
    <i name="hartreedc">  -2741.93126535 </i>
    <i name="XCdc">      0.00000000 </i>
    <i name="pawpsdc">   8694.32904107 </i>
    <i name="pawaedc">  29931.31044418 </i>
    <i name="eentropy">     -0.00262570 </i>
    <i name="bandstr">   2531.18472291 </i>
    <i name="atom">  12337.50394214 </i>
    <i name="e_fr_energy">  42026.94982874 </i>
    <i name="e_wo_entrp">  42026.95245444 </i>
    <i name="e_0_energy">  42026.95070397 </i>
   </energy>
  </scstep>
  <scstep>
   <time name="total">  716.14  715.93</time>
   <energy>
    <i name="e_fr_energy">  40377.11674036 </i>
    <i name="e_wo_entrp">  40377.11831047 </i>
    <i name="e_0_energy">  40377.11726373 </i>
   </energy>
  </scstep>
  <scstep>
   <time name="total">  702.96  702.76</time>
   <energy>
    <i name="e_fr_energy">  40099.98479978 </i>
    <i name="e_wo_entrp">  40099.98495130 </i>
    <i name="e_0_energy">  40099.98485029 </i>
   </energy>
  </scstep>
  <scstep>
   <time name="total">  748.98  748.77</time>
   <energy>
    <i name="e_fr_energy">  40075.62275932 </i>
    <i name="e_wo_entrp">  40075.62324360 </i>
    <i name="e_0_energy">  40075.62292075 </i>
   </energy>
  </scstep>
  <scstep>
   <time name="total">  830.30  830.06</time>
   <energy>
    <i name="e_fr_energy">  40072.84640097 </i>
    <i name="e_wo_entrp">  40072.84710361 </i>
    <i name="e_0_energy">  40072.84663518 </i>
   </energy>
  </scstep>
  <scstep>
   <i name="CMBJ">      1.97937789 </i>
   <time name="total">  330.55  330.47</time>
   <energy>
    <i name="e_fr_energy">  41200.95567114 </i>
    <i name="e_wo_entrp">  41200.95070474 </i>
    <i name="e_0_energy">  41200.95401567 </i>
   </energy>
  </scstep>
  <scstep>
   <i name="CMBJ">      1.14212620 </i>
   <time name="total">  398.52  398.39</time>
   <energy>
    <i name="e_fr_energy">  39760.73798771 </i>
    <i name="e_wo_entrp">  39760.74030571 </i>
    <i name="e_0_energy">  39760.73876038 </i>
   </energy>
  </scstep>
  <scstep>
   <i name="CMBJ">      1.22815058 </i>
   <time name="total">  369.37  369.26</time>
   <energy>
    <i name="e_fr_energy">  39587.77717004 </i>
    <i name="e_wo_entrp">  39587.79479676 </i>
    <i name="e_0_energy">  39587.78304561 </i>
   </energy>
  </scstep>
  <scstep>
   <i name="CMBJ">      1.30612329 </i>
   <time name="total">  388.14  388.05</time>
   <energy>
    <i name="e_fr_energy">  39660.15306486 </i>
    <i name="e_wo_entrp">  39660.17617077 </i>
    <i name="e_0_energy">  39660.16076683 </i>
   </energy>
  </scstep>
  <scstep>
   <i name="CMBJ">      1.36727980 </i>
   <time name="total">  358.78  358.67</time>
   <energy>
    <i name="e_fr_energy">  39663.61658571 </i>
    <i name="e_wo_entrp">  39663.61106171 </i>
    <i name="e_0_energy">  39663.61474438 </i>
   </energy>
  </scstep>
  <scstep>
   <i name="CMBJ">      1.39350795 </i>
   <time name="total">  361.34  361.23</time>
   <energy>
    <i name="e_fr_energy">  39820.52433312 </i>
    <i name="e_wo_entrp">  39820.52411949 </i>
    <i name="e_0_energy">  39820.52426191 </i>
   </energy>
  </scstep>
  <scstep>
   <i name="CMBJ">      1.40669653 </i>
   <time name="total">  350.83  350.73</time>
   <energy>
    <i name="e_fr_energy">  40242.83741373 </i>
    <i name="e_wo_entrp">  40242.83314660 </i>
    <i name="e_0_energy">  40242.83599136 </i>
   </energy>
  </scstep>
  <scstep>
   <i name="CMBJ">      1.41160118 </i>
   <time name="total">  345.21  345.11</time>
   <energy>
    <i name="e_fr_energy">  40425.28479171 </i>
    <i name="e_wo_entrp">  40425.29037671 </i>
    <i name="e_0_energy">  40425.28665338 </i>
   </energy>
  </scstep>
  <scstep>
   <i name="CMBJ">      1.40891191 </i>
   <time name="total">  335.78  335.68</time>
   <energy>
    <i name="e_fr_energy">  39835.38986307 </i>
    <i name="e_wo_entrp">  39835.39719957 </i>
    <i name="e_0_energy">  39835.39230857 </i>
   </energy>
  </scstep>
  <scstep>
   <i name="CMBJ">      1.40285213 </i>
   <time name="total">  319.09  319.00</time>
   <energy>
    <i name="e_fr_energy">  39747.23807769 </i>
    <i name="e_wo_entrp">  39747.24834901 </i>
    <i name="e_0_energy">  39747.24150146 </i>
   </energy>
  </scstep>
  <scstep>
   <i name="CMBJ">      1.40778054 </i>
   <time name="total">  361.39  361.28</time>
   <energy>
    <i name="e_fr_energy">  40532.09196844 </i>
    <i name="e_wo_entrp">  40532.08742909 </i>
    <i name="e_0_energy">  40532.09045533 </i>
   </energy>
  </scstep>
  <scstep>
   <i name="CMBJ">      1.41732673 </i>
   <time name="total">  334.50  334.41</time>
   <energy>
    <i name="e_fr_energy">  40554.02656477 </i>
    <i name="e_wo_entrp">  40554.02826713 </i>
    <i name="e_0_energy">  40554.02713222 </i>
   </energy>
  </scstep>
  <scstep>
   <i name="CMBJ">      1.41665834 </i>
   <time name="total">  360.06  360.05</time>
   <energy>
    <i name="e_fr_energy">  39794.05964836 </i>
    <i name="e_wo_entrp">  39794.05252986 </i>
    <i name="e_0_energy">  39794.05727553 </i>
   </energy>
  </scstep>
  <scstep>
   <i name="CMBJ">      1.40549157 </i>
   <time name="total">  376.82  376.71</time>
   <energy>
    <i name="e_fr_energy">  39809.01539002 </i>
    <i name="e_wo_entrp">  39809.02524038 </i>
    <i name="e_0_energy">  39809.01867347 </i>
   </energy>
  </scstep>
  <scstep>
   <i name="CMBJ">      1.41222598 </i>
   <time name="total">  380.41  380.31</time>
   <energy>
    <i name="e_fr_energy">  40539.37852137 </i>
    <i name="e_wo_entrp">  40539.38827315 </i>
    <i name="e_0_energy">  40539.38177196 </i>
   </energy>
  </scstep>
  <scstep>
   <i name="CMBJ">      1.41649738 </i>
   <time name="total">  378.81  378.71</time>
   <energy>
    <i name="e_fr_energy">  40511.94780778 </i>
    <i name="e_wo_entrp">  40511.94487158 </i>
    <i name="e_0_energy">  40511.94682905 </i>
   </energy>
  </scstep>
  <scstep>
   <i name="CMBJ">      1.41313513 </i>
   <time name="total">  382.06  381.98</time>
   <energy>
    <i name="e_fr_energy">  39796.17481119 </i>
    <i name="e_wo_entrp">  39796.16762634 </i>
    <i name="e_0_energy">  39796.17241624 </i>
   </energy>
  </scstep>
  <scstep>
   <i name="CMBJ">      1.40519020 </i>
   <time name="total">  395.48  395.38</time>
   <energy>
    <i name="e_fr_energy">  39840.31925582 </i>
    <i name="e_wo_entrp">  39840.32511093 </i>
    <i name="e_0_energy">  39840.32120752 </i>
   </energy>
  </scstep>
  <scstep>
   <i name="CMBJ">      1.41447814 </i>
   <time name="total">  387.65  387.55</time>
   <energy>
    <i name="e_fr_energy">  40541.05271488 </i>
    <i name="e_wo_entrp">  40541.06009302 </i>
    <i name="e_0_energy">  40541.05517426 </i>
   </energy>
  </scstep>
  <scstep>
   <i name="CMBJ">      1.41659483 </i>
   <time name="total">  389.06  388.94</time>
   <energy>
    <i name="e_fr_energy">  40505.98442418 </i>
    <i name="e_wo_entrp">  40505.98297927 </i>
    <i name="e_0_energy">  40505.98394254 </i>
   </energy>
  </scstep>
  <scstep>
   <i name="CMBJ">      1.41457813 </i>
   <time name="total">  405.12  405.00</time>
   <energy>
    <i name="e_fr_energy">  39806.91893531 </i>
    <i name="e_wo_entrp">  39806.91639897 </i>
    <i name="e_0_energy">  39806.91808987 </i>
   </energy>
  </scstep>
  <scstep>
   <i name="CMBJ">      1.40565613 </i>
   <time name="total">  381.85  381.73</time>
   <energy>
    <i name="e_fr_energy">  39884.17004945 </i>
    <i name="e_wo_entrp">  39884.17182417 </i>
    <i name="e_0_energy">  39884.17064102 </i>
   </energy>
  </scstep>
  <scstep>
   <i name="CMBJ">      1.41287223 </i>
   <time name="total">  384.94  384.82</time>
   <energy>
    <i name="e_fr_energy">  40517.35625235 </i>
    <i name="e_wo_entrp">  40517.35651275 </i>
    <i name="e_0_energy">  40517.35633915 </i>
   </energy>
  </scstep>
  <scstep>
   <i name="CMBJ">      1.41813115 </i>
   <time name="total">  369.86  369.75</time>
   <energy>
    <i name="e_fr_energy">  40316.10002798 </i>
    <i name="e_wo_entrp">  40316.09334600 </i>
    <i name="e_0_energy">  40316.09780065 </i>
   </energy>
  </scstep>
  <scstep>
   <i name="CMBJ">      1.40519281 </i>
   <time name="total">  421.92  421.80</time>
   <energy>
    <i name="e_fr_energy">  39776.93050357 </i>
    <i name="e_wo_entrp">  39776.92821728 </i>
    <i name="e_0_energy">  39776.92974147 </i>
   </energy>
  </scstep>
  <scstep>
   <i name="CMBJ">      1.40805149 </i>
   <time name="total">  429.18  429.06</time>
   <energy>
    <i name="e_fr_energy">  39898.14967395 </i>
    <i name="e_wo_entrp">  39898.15281575 </i>
    <i name="e_0_energy">  39898.15072122 </i>
   </energy>
  </scstep>
  <scstep>
   <i name="CMBJ">      1.41723301 </i>
   <time name="total">  397.75  397.63</time>
   <energy>
    <i name="e_fr_energy">  40186.10285828 </i>
    <i name="e_wo_entrp">  40186.10465668 </i>
    <i name="e_0_energy">  40186.10345775 </i>
   </energy>
  </scstep>
  <scstep>
   <i name="CMBJ">      1.41449883 </i>
   <time name="total">  337.10  336.99</time>
   <energy>
    <i name="e_fr_energy">  39898.50854752 </i>
    <i name="e_wo_entrp">  39898.50968892 </i>
    <i name="e_0_energy">  39898.50892799 </i>
   </energy>
  </scstep>
  <scstep>
   <i name="CMBJ">      1.41475594 </i>
   <time name="total">  370.64  370.53</time>
   <energy>
    <i name="e_fr_energy">  39708.11201729 </i>
    <i name="e_wo_entrp">  39708.10977642 </i>
    <i name="e_0_energy">  39708.11127033 </i>
   </energy>
  </scstep>
  <scstep>
   <i name="CMBJ">      1.40726032 </i>
   <time name="total">  374.04  373.92</time>
   <energy>
    <i name="e_fr_energy">  39653.12323840 </i>
    <i name="e_wo_entrp">  39653.12395641 </i>
    <i name="e_0_energy">  39653.12347774 </i>
   </energy>
  </scstep>
  <scstep>
   <i name="CMBJ">      1.41266289 </i>
   <time name="total">  399.54  399.42</time>
   <energy>
    <i name="e_fr_energy">  39642.34757727 </i>
    <i name="e_wo_entrp">  39642.35049721 </i>
    <i name="e_0_energy">  39642.34855058 </i>
   </energy>
  </scstep>
  <scstep>
   <i name="CMBJ">      1.41458631 </i>
   <time name="total">  383.90  383.81</time>
   <energy>
    <i name="e_fr_energy">  39687.85503577 </i>
    <i name="e_wo_entrp">  39687.85816602 </i>
    <i name="e_0_energy">  39687.85607919 </i>
   </energy>
  </scstep>
  <scstep>
   <i name="CMBJ">      1.41388552 </i>
   <time name="total">  384.91  384.79</time>
   <energy>
    <i name="e_fr_energy">  39995.74345851 </i>
    <i name="e_wo_entrp">  39995.74272894 </i>
    <i name="e_0_energy">  39995.74321532 </i>
   </energy>
  </scstep>
  <scstep>
   <i name="CMBJ">      1.41821441 </i>
   <time name="total">  379.68  379.57</time>
   <energy>
    <i name="e_fr_energy">  40198.25492830 </i>
    <i name="e_wo_entrp">  40198.25456244 </i>
    <i name="e_0_energy">  40198.25480635 </i>
   </energy>
  </scstep>
  <scstep>
   <i name="CMBJ">      1.41809887 </i>
   <time name="total">  368.51  368.40</time>
   <energy>
    <i name="e_fr_energy">  39871.50828045 </i>
    <i name="e_wo_entrp">  39871.51244860 </i>
    <i name="e_0_energy">  39871.50966983 </i>
   </energy>
  </scstep>
  <scstep>
   <i name="CMBJ">      1.41195463 </i>
   <time name="total">  375.68  375.56</time>
   <energy>
    <i name="e_fr_energy">  39701.12290011 </i>
    <i name="e_wo_entrp">  39701.12208680 </i>
    <i name="e_0_energy">  39701.12262900 </i>
   </energy>
  </scstep>
  <scstep>
   <i name="CMBJ">      1.40661369 </i>
   <time name="total">  369.41  369.30</time>
   <energy>
    <i name="e_fr_energy">  39871.49898983 </i>
    <i name="e_wo_entrp">  39871.50241690 </i>
    <i name="e_0_energy">  39871.50013218 </i>
   </energy>
  </scstep>
  <scstep>
   <i name="CMBJ">      1.41651442 </i>
   <time name="total">  374.81  374.69</time>
   <energy>
    <i name="e_fr_energy">  40498.48512521 </i>
    <i name="e_wo_entrp">  40498.47801280 </i>
    <i name="e_0_energy">  40498.48275441 </i>
   </energy>
  </scstep>
  <scstep>
   <i name="CMBJ">      1.42234646 </i>
   <time name="total">  346.63  346.56</time>
   <energy>
    <i name="e_fr_energy">  40545.85690691 </i>
    <i name="e_wo_entrp">  40545.85134899 </i>
    <i name="e_0_energy">  40545.85505427 </i>
   </energy>
  </scstep>
  <scstep>
   <i name="CMBJ">      1.40571198 </i>
   <time name="total">  350.02  349.94</time>
   <energy>
    <i name="e_fr_energy">  39850.16938344 </i>
    <i name="e_wo_entrp">  39850.16940932 </i>
    <i name="e_0_energy">  39850.16939207 </i>
   </energy>
  </scstep>
  <scstep>
   <i name="CMBJ">      1.40987866 </i>
   <time name="total">  374.80  374.69</time>
   <energy>
    <i name="e_fr_energy">  40150.51363868 </i>
    <i name="e_wo_entrp">  40150.51188466 </i>
    <i name="e_0_energy">  40150.51305401 </i>
   </energy>
  </scstep>
  <scstep>
   <i name="CMBJ">      1.41418659 </i>
   <time name="total">  363.50  363.39</time>
   <energy>
    <i name="e_fr_energy">  40287.07015201 </i>
    <i name="e_wo_entrp">  40287.06886987 </i>
    <i name="e_0_energy">  40287.06972463 </i>
   </energy>
  </scstep>
  <scstep>
   <i name="CMBJ">      1.41990309 </i>
   <time name="total">  379.70  379.58</time>
   <energy>
    <i name="e_fr_energy">  39735.41400749 </i>
    <i name="e_wo_entrp">  39735.41276537 </i>
    <i name="e_0_energy">  39735.41359345 </i>
   </energy>
  </scstep>
  <scstep>
   <i name="CMBJ">      1.40608914 </i>
   <time name="total">  352.14  352.03</time>
   <energy>
    <i name="e_fr_energy">  39839.43871983 </i>
    <i name="e_wo_entrp">  39839.43915679 </i>
    <i name="e_0_energy">  39839.43886548 </i>
   </energy>
  </scstep>
  <scstep>
   <i name="CMBJ">      1.40967107 </i>
   <time name="total">  374.90  374.79</time>
   <energy>
    <i name="e_fr_energy">  40236.93290509 </i>
    <i name="e_wo_entrp">  40236.93353263 </i>
    <i name="e_0_energy">  40236.93311427 </i>
   </energy>
  </scstep>
  <scstep>
   <i name="CMBJ">      1.42184983 </i>
   <time name="total">  345.05  344.95</time>
   <energy>
    <i name="e_fr_energy">  39837.99364947 </i>
    <i name="e_wo_entrp">  39837.99210662 </i>
    <i name="e_0_energy">  39837.99313519 </i>
   </energy>
  </scstep>
  <scstep>
   <i name="CMBJ">      1.40214775 </i>
   <time name="total">  420.98  420.86</time>
   <energy>
    <i name="e_fr_energy">  39682.94883859 </i>
    <i name="e_wo_entrp">  39682.94968598 </i>
    <i name="e_0_energy">  39682.94912105 </i>
   </energy>
  </scstep>
  <scstep>
   <i name="CMBJ">      1.40127675 </i>
   <time name="total">  394.18  394.06</time>
   <energy>
    <i name="e_fr_energy">  39905.70713571 </i>
    <i name="e_wo_entrp">  39905.70925430 </i>
    <i name="e_0_energy">  39905.70784190 </i>
   </energy>
  </scstep>
  <scstep>
   <i name="CMBJ">      1.42141859 </i>
   <time name="total">  413.28  413.15</time>
   <energy>
    <i name="e_fr_energy">  40057.55154568 </i>
    <i name="e_wo_entrp">  40057.55130682 </i>
    <i name="e_0_energy">  40057.55146606 </i>
   </energy>
  </scstep>
  <scstep>
   <i name="CMBJ">      1.41704628 </i>
   <time name="total">  372.14  372.02</time>
   <energy>
    <i name="e_fr_energy">  39829.22620442 </i>
    <i name="e_wo_entrp">  39829.22908161 </i>
    <i name="e_0_energy">  39829.22716348 </i>
   </energy>
  </scstep>
  <scstep>
   <i name="CMBJ">      1.41760016 </i>
   <time name="total">  375.29  375.18</time>
   <energy>
    <i name="e_fr_energy">  39735.30095206 </i>
    <i name="e_wo_entrp">  39735.30167702 </i>
    <i name="e_0_energy">  39735.30119372 </i>
   </energy>
  </scstep>
  <scstep>
   <i name="CMBJ">      1.40832754 </i>
   <time name="total">  383.87  383.76</time>
   <energy>
    <i name="e_fr_energy">  39708.34859022 </i>
    <i name="e_wo_entrp">  39708.34820526 </i>
    <i name="e_0_energy">  39708.34846190 </i>
   </energy>
  </scstep>
  <scstep>
   <i name="CMBJ">      1.41464361 </i>
   <time name="total">  370.90  370.81</time>
   <energy>
    <i name="e_fr_energy">  39785.71178197 </i>
    <i name="e_wo_entrp">  39785.71342599 </i>
    <i name="e_0_energy">  39785.71232998 </i>
   </energy>
  </scstep>
  <scstep>
   <i name="CMBJ">      1.41857591 </i>
   <time name="total">  332.97  332.87</time>
   <energy>
    <i name="e_fr_energy">  40196.65676560 </i>
    <i name="e_wo_entrp">  40196.65488283 </i>
    <i name="e_0_energy">  40196.65613801 </i>
   </energy>
  </scstep>
  <scstep>
   <i name="CMBJ">      1.42246101 </i>
   <time name="total">  323.31  323.22</time>
   <energy>
    <i name="alphaZ">    862.02237475 </i>
    <i name="ewald">  -9587.46680526 </i>
    <i name="hartreedc">  -3284.05592580 </i>
    <i name="XCdc">   1637.22587690 </i>
    <i name="pawpsdc">  19833.82437194 </i>
    <i name="pawaedc">  18748.14027326 </i>
    <i name="eentropy">     -0.00806084 </i>
    <i name="bandstr">   -470.87403670 </i>
    <i name="atom">  12337.50394214 </i>
    <i name="e_fr_energy">  40076.32195400 </i>
    <i name="e_wo_entrp">  40076.33001485 </i>
    <i name="e_0_energy">  40076.32464095 </i>
   </energy>
  </scstep>
  <structure>
   <crystal>
    <varray name="basis" >
     <v>       4.72054000       0.00000000       0.00000000 </v>
     <v>       0.00000000       4.72541300       0.00000000 </v>
     <v>       0.00000000       0.00000000       9.20463400 </v>
    </varray>
    <i name="volume">    205.32317829 </i>
    <varray name="rec_basis" >
     <v>       0.21184017       0.00000000       0.00000000 </v>
     <v>       0.00000000       0.21162171       0.00000000 </v>
     <v>       0.00000000       0.00000000       0.10864093 </v>
    </varray>
   </crystal>
   <varray name="positions" >
    <v>       0.74409900       0.01374700       0.33761100 </v>
    <v>       0.74409900       0.01374700       0.66238900 </v>
    <v>       0.25590100       0.51374700       0.16238900 </v>
    <v>       0.25590100       0.51374700       0.83761100 </v>
    <v>       0.75008400       0.99352300       0.00000000 </v>
    <v>       0.24991600       0.49352300       0.50000000 </v>
    <v>       0.45215600       0.69554800       0.00000000 </v>
    <v>       0.54784400       0.19554800       0.50000000 </v>
    <v>       0.94414100       0.80005200       0.50000000 </v>
    <v>       0.94650300       0.80009200       0.83325900 </v>
    <v>       0.94650300       0.80009200       0.16674100 </v>
    <v>       0.05349700       0.30009200       0.33325900 </v>
    <v>       0.05349700       0.30009200       0.66674100 </v>
    <v>       0.05585900       0.30005200       0.00000000 </v>
    <v>       0.44566800       0.69160000       0.33239200 </v>
    <v>       0.44566800       0.69160000       0.66760800 </v>
    <v>       0.55433200       0.19160000       0.16760800 </v>
    <v>       0.55433200       0.19160000       0.83239200 </v>
   </varray>
  </structure>
  <varray name="forces" >
   <v>     -16.13532029      12.25883140     204.15396819 </v>
   <v>     -16.07766782      12.29974714    -204.57701729 </v>
   <v>       5.24998127       3.79043202     103.94800612 </v>
   <v>       5.20581905       3.91707518    -102.72204823 </v>
   <v>      -5.66992468      -6.90743514       1.50989295 </v>
   <v>      20.02431065     -22.83107201      -1.50450401 </v>
   <v>     -40.11680300     -41.12796515       0.43683899 </v>
   <v>      58.96216535     -54.67832289      -1.01006474 </v>
   <v>     -57.26114873      60.95356691      -1.15935586 </v>
   <v>      21.15190679     -18.35352694    -121.62454165 </v>
   <v>      20.79274726     -17.99688415     122.40208398 </v>
   <v>     -35.61653099     -37.20247072      36.58561589 </v>
   <v>     -35.08358371     -36.76834760     -37.21354322 </v>
   <v>      41.34202460      39.38322727       0.60329489 </v>
   <v>      34.04391710      32.30321547      33.03734263 </v>
   <v>      33.65752330      31.77567735     -33.72440494 </v>
   <v>     -17.08597330      19.47201293     124.82331213 </v>
   <v>     -17.38344287      19.71223894    -123.96487582 </v>
  </varray>
  <varray name="stress" >
   <v>  -12243.51915609    -572.35872790     -12.64898069 </v>
   <v>    -572.35872871  -12007.86891334      11.13616960 </v>
   <v>     -12.64898150      11.13616960  -14400.37759685 </v>
  </varray>
  <i name="CMBJ">      1.41500750 </i>
  <energy>
   <i name="e_fr_energy">  40076.32195400 </i>
   <i name="e_wo_entrp">  40076.32464095 </i>
   <i name="e_0_energy">     -0.00806084 </i>
  </energy>
  <time name="totalsc">24204.2724197.51</time>
  <eigenvalues>
   <array>
    <dimension dim="1">band</dimension>
    <dimension dim="2">kpoint</dimension>
    <dimension dim="3">spin</dimension>
    <field>eigene</field>
    <field>occ</field>
    <set>
     <set comment="spin 1">
      <set comment="kpoint 1">
       <r>   56.5871    1.0000 </r>
       <r>   55.2890    1.0000 </r>
       <r>   55.8325    1.0000 </r>
       <r>  -12.9107    1.0000 </r>
       <r>  -12.3458    1.0000 </r>
       <r>  -12.2469    1.0000 </r>
       <r>  -12.4290    1.0000 </r>
       <r>  -12.4601    1.0000 </r>
       <r>  -13.8045    1.0000 </r>
       <r>  -43.2514    1.0000 </r>
       <r>  -42.2388    1.0000 </r>
       <r>  -45.2208    1.0000 </r>
       <r>  -45.2040    1.0000 </r>
       <r>  -44.4029    1.0000 </r>
       <r>  -44.4423    1.0000 </r>
       <r> -123.4959    1.0000 </r>
       <r> -124.1822    1.0000 </r>
       <r> -124.4999    1.0000 </r>
       <r>   18.0908    1.0000 </r>
       <r>    8.7258    1.0000 </r>
       <r>    6.6371    1.0000 </r>
       <r>    7.9232    1.0000 </r>
       <r>    7.4806    1.0000 </r>
       <r>  -13.1690    1.0000 </r>
       <r>  -34.2240    1.0000 </r>
       <r>   -2.8231    1.0000 </r>
       <r>  -33.9808    1.0000 </r>
       <r>  -22.7703    1.0000 </r>
       <r>  -47.8270    1.0000 </r>
       <r>  -48.4793    1.0000 </r>
       <r>   34.7548    1.0000 </r>
       <r>   24.7480    1.0000 </r>
       <r>   21.3274    1.0000 </r>
       <r>   31.6641    1.0000 </r>
       <r>   30.5053    1.0000 </r>
       <r>   29.0072    1.0000 </r>
       <r>   34.3607    1.0000 </r>
       <r>   23.2530    1.0000 </r>
       <r>   30.2046    1.0000 </r>
       <r>   24.2462    1.0000 </r>
       <r>   17.1629    1.0000 </r>
       <r>   11.1075    1.0000 </r>
       <r>   17.1301    1.0000 </r>
       <r>   30.2925    1.0000 </r>
       <r>    0.6193    1.0000 </r>
       <r>   20.3994    1.0000 </r>
       <r>    6.5708    1.0000 </r>
       <r>   -6.2181    1.0000 </r>
       <r>   21.8063    1.0000 </r>
       <r>   22.3604    1.0000 </r>
       <r>  -12.6958    1.0000 </r>
       <r>  -16.4854    1.0000 </r>
       <r>   -7.6879    1.0000 </r>
       <r>  -15.4287    1.0000 </r>
       <r>  -19.5840    1.0000 </r>
       <r>  -20.2121    1.0000 </r>
       <r>  -12.5696    1.0000 </r>
       <r>  -12.7671    1.0000 </r>
       <r>  -13.8073    1.0000 </r>
       <r>  -14.6973    1.0000 </r>
       <r>  -15.1104    1.0000 </r>
       <r>  -14.6836    1.0000 </r>
       <r>   84.3211    1.0000 </r>
       <r>   60.6366    1.0000 </r>
       <r>    2.7975    1.0000 </r>
       <r>   59.9011    1.0000 </r>
       <r>    6.5055    1.0000 </r>
       <r>   28.7261    1.0000 </r>
       <r>  -13.8172    0.3241 </r>
       <r>   65.5421   -0.0162 </r>
       <r>  -20.9936   -0.0108 </r>
       <r>   24.7641   -0.0006 </r>
       <r>   37.4198   -0.0000 </r>
       <r>   22.1662   -0.0000 </r>
       <r>   18.8034   -0.0000 </r>
       <r>   27.4289   -0.0000 </r>
       <r>   26.4153   -0.0000 </r>
       <r>   10.4009   -0.0000 </r>
       <r>   -6.9620   -0.0000 </r>
       <r>   -1.0358   -0.0000 </r>
       <r>   -2.9513    0.0000 </r>
       <r>   -2.1742    0.0000 </r>
       <r>   31.6956    0.0000 </r>
       <r>   -7.8122    0.0000 </r>
       <r>   19.0264    0.0000 </r>
       <r>   23.2115    0.0000 </r>
       <r>   24.8966    0.0000 </r>
       <r>   19.4778    0.0000 </r>
       <r>    4.9615    0.0000 </r>
       <r>   -1.7197    0.0000 </r>
       <r>   -0.5939    0.0000 </r>
       <r>   10.7954    0.0000 </r>
       <r>   16.1822    0.0000 </r>
       <r>   25.6050    0.0000 </r>
       <r>   28.6531    0.0000 </r>
       <r>    7.6273    0.0000 </r>
       <r>  -39.4835    0.0000 </r>
       <r>  -38.2213    0.0000 </r>
       <r>   -8.9036    0.0000 </r>
       <r>  -46.9930    0.0000 </r>
       <r>   26.6496    0.0000 </r>
       <r>   53.5369    0.0000 </r>
       <r>   15.5690    0.0000 </r>
       <r>   -0.3997    0.0000 </r>
       <r>   41.8945    0.0000 </r>
       <r>   25.9245    0.0000 </r>
       <r>  -14.3374    0.0000 </r>
       <r>   35.4516    0.0000 </r>
       <r>   13.4501    0.0000 </r>
       <r>   22.4888    0.0000 </r>
       <r>   45.8423    0.0000 </r>
       <r>   24.8654    0.0000 </r>
       <r>   24.8147    0.0000 </r>
       <r>   31.6431    0.0000 </r>
       <r>   12.3892    0.0000 </r>
       <r>   12.8112    0.0000 </r>
       <r>   22.4849    0.0000 </r>
       <r>   27.8484    0.0000 </r>
       <r>   23.1614    0.0000 </r>
       <r>   43.2347    0.0000 </r>
       <r>    2.8389    0.0000 </r>
       <r>   18.9440    0.0000 </r>
       <r>   11.5408    0.0000 </r>
       <r>  -12.0993    0.0000 </r>
       <r>    2.7785    0.0000 </r>
       <r>  -11.1993    0.0000 </r>
       <r>   14.9741    0.0000 </r>
       <r>   38.6882    0.0000 </r>
       <r>   44.0533    0.0000 </r>
       <r>  114.2201    0.0000 </r>
       <r>   44.7971    0.0000 </r>
       <r>   17.5538    0.0000 </r>
       <r>   27.8028    0.0000 </r>
       <r>   29.5828    0.0000 </r>
       <r>   22.8549    0.0000 </r>
       <r>   44.3803    0.0000 </r>
       <r>   39.7772    0.0000 </r>
       <r>   51.2178    0.0000 </r>
       <r>   35.7071    0.0000 </r>
       <r>   39.3327    0.0000 </r>
       <r>   56.6131    0.0000 </r>
       <r>   36.3037    0.0000 </r>
       <r>   39.3177    0.0000 </r>
       <r>   30.3926    0.0000 </r>
       <r>   24.9909    0.0000 </r>
       <r>   32.2670    0.0000 </r>
       <r>   31.0658    0.0000 </r>
       <r>   34.7065    0.0000 </r>
       <r>   21.1139    0.0000 </r>
       <r>   28.6650    0.0000 </r>
       <r>   33.3849    0.0000 </r>
       <r>    7.2629    0.0000 </r>
       <r>   23.5451    0.0000 </r>
       <r>   17.2335    0.0000 </r>
       <r>   35.8770    0.0000 </r>
       <r>   46.7896    0.0000 </r>
       <r>   23.2897    0.0000 </r>
       <r>   41.6307    0.0000 </r>
       <r>   39.7309    0.0000 </r>
       <r>   38.9685    0.0000 </r>
       <r>   42.4817    0.0000 </r>
       <r>   41.7146    0.0000 </r>
       <r>   37.7733    0.0000 </r>
       <r>   34.3153    0.0000 </r>
       <r>    7.2979    0.0000 </r>
       <r>   43.9384    0.0000 </r>
       <r>   34.0574    0.0000 </r>
       <r>   40.5245    0.0000 </r>
       <r>   34.0809    0.0000 </r>
       <r>   33.6747    0.0000 </r>
       <r>   27.9219    0.0000 </r>
       <r>   33.9331    0.0000 </r>
       <r>   32.7165    0.0000 </r>
       <r>   32.3749    0.0000 </r>
       <r>   31.7214    0.0000 </r>
       <r>   30.7401    0.0000 </r>
       <r>   31.4749    0.0000 </r>
       <r>   42.7788    0.0000 </r>
       <r>   28.6206    0.0000 </r>
       <r>   40.5599    0.0000 </r>
       <r>   25.9863    0.0000 </r>
       <r>   36.7528    0.0000 </r>
       <r>   42.0531    0.0000 </r>
       <r>   34.4914    0.0000 </r>
       <r>   49.0411    0.0000 </r>
       <r>   53.7715    0.0000 </r>
       <r>   33.9969    0.0000 </r>
       <r>   50.3733    0.0000 </r>
       <r>   46.9197    0.0000 </r>
       <r>  -63.7745    0.0000 </r>
       <r>   41.3402    0.0000 </r>
       <r>   47.2021    0.0000 </r>
       <r>   53.0157    0.0000 </r>
       <r>   43.2983    0.0000 </r>
       <r>   46.3226    0.0000 </r>
       <r>   30.5732    0.0000 </r>
       <r>   37.3124    0.0000 </r>
       <r>   53.9774    0.0000 </r>
       <r>   58.6026    0.0000 </r>
       <r>   30.3521    0.0000 </r>
       <r>   46.3989    0.0000 </r>
       <r>   39.9573    0.0000 </r>
       <r>   43.4098    0.0000 </r>
       <r>   34.9732    0.0000 </r>
       <r>   54.3110    0.0000 </r>
       <r>   45.7795    0.0000 </r>
       <r>   46.6842    0.0000 </r>
       <r>   50.2071    0.0000 </r>
       <r>   46.3109    0.0000 </r>
       <r>   39.9661    0.0000 </r>
       <r>   35.2741    0.0000 </r>
       <r>   46.8516    0.0000 </r>
       <r>   38.1654    0.0000 </r>
       <r>   49.2854    0.0000 </r>
       <r>   43.8517    0.0000 </r>
       <r>   44.0844    0.0000 </r>
       <r>   49.4381    0.0000 </r>
       <r>   55.4481    0.0000 </r>
       <r>   52.0444    0.0000 </r>
       <r>   38.7637    0.0000 </r>
       <r>   43.3611    0.0000 </r>
       <r>   49.0906    0.0000 </r>
       <r>   34.7939    0.0000 </r>
       <r>   50.4044    0.0000 </r>
       <r>   54.1695    0.0000 </r>
       <r>   42.1342    0.0000 </r>
       <r>   38.4176    0.0000 </r>
       <r>   41.5615    0.0000 </r>
       <r>   53.0630    0.0000 </r>
       <r>   45.0846    0.0000 </r>
       <r>   48.5473    0.0000 </r>
       <r>   51.2577    0.0000 </r>
       <r>   52.6080    0.0000 </r>
       <r>   53.0524    0.0000 </r>
       <r>   52.7235    0.0000 </r>
       <r>   51.5671    0.0000 </r>
       <r>   50.7175    0.0000 </r>
       <r>   50.3763    0.0000 </r>
       <r>   50.1517    0.0000 </r>
       <r>   46.1799    0.0000 </r>
       <r>   43.3748    0.0000 </r>
       <r>   39.3962    0.0000 </r>
       <r>   49.5904    0.0000 </r>
       <r>   43.1919    0.0000 </r>
       <r>   50.1458    0.0000 </r>
       <r>   46.4590    0.0000 </r>
       <r>   55.8251    0.0000 </r>
       <r>   46.3708    0.0000 </r>
       <r>   53.1180    0.0000 </r>
       <r>   48.0490    0.0000 </r>
       <r>   40.2539    0.0000 </r>
       <r>   42.4095    0.0000 </r>
       <r>   44.7995    0.0000 </r>
       <r>   46.7079    0.0000 </r>
       <r>   48.5385    0.0000 </r>
       <r>   41.7496    0.0000 </r>
       <r>   50.8204    0.0000 </r>
       <r>   51.8014    0.0000 </r>
       <r>   56.0140    0.0000 </r>
       <r>   60.3918    0.0000 </r>
       <r>   51.5177    0.0000 </r>
       <r>   60.2357    0.0000 </r>
       <r>   60.8663    0.0000 </r>
       <r>   51.2882    0.0000 </r>
       <r>   61.0435    0.0000 </r>
       <r>   57.6200    0.0000 </r>
       <r>   55.9370    0.0000 </r>
       <r>   51.5516    0.0000 </r>
       <r>   55.5563    0.0000 </r>
       <r>   53.3149    0.0000 </r>
       <r>   59.4999    0.0000 </r>
       <r>   47.6812    0.0000 </r>
       <r>   46.2669    0.0000 </r>
       <r>   51.0777    0.0000 </r>
       <r>   56.9756    0.0000 </r>
       <r>   46.0415    0.0000 </r>
       <r>   50.7434    0.0000 </r>
       <r>   46.3604    0.0000 </r>
       <r>   44.9586    0.0000 </r>
       <r>   43.9005    0.0000 </r>
      </set>
      <set comment="kpoint 2">
       <r>   56.5367    1.0000 </r>
       <r>   55.1671    1.0000 </r>
       <r>   55.8132    1.0000 </r>
       <r>  -12.9127    1.0000 </r>
       <r>  -12.3440    1.0000 </r>
       <r>  -12.2454    1.0000 </r>
       <r>  -12.4299    1.0000 </r>
       <r>  -12.4594    1.0000 </r>
       <r>  -13.8075    1.0000 </r>
       <r>  -43.2703    1.0000 </r>
       <r>  -42.2278    1.0000 </r>
       <r>  -44.9333    1.0000 </r>
       <r>  -45.3606    1.0000 </r>
       <r>  -45.0548    1.0000 </r>
       <r>  -44.5575    1.0000 </r>
       <r> -122.3403    1.0000 </r>
       <r> -124.4833    1.0000 </r>
       <r> -124.5234    1.0000 </r>
       <r>   18.5644    1.0000 </r>
       <r>    8.2878    1.0000 </r>
       <r>    6.7214    1.0000 </r>
       <r>    7.8087    1.0000 </r>
       <r>    7.4922    1.0000 </r>
       <r>  -10.3046    1.0000 </r>
       <r>  -34.1679    1.0000 </r>
       <r>   -7.3123    1.0000 </r>
       <r>  -34.0420    1.0000 </r>
       <r>  -21.1899    1.0000 </r>
       <r>  -47.8302    1.0000 </r>
       <r>  -48.5489    1.0000 </r>
       <r>   35.6263    1.0000 </r>
       <r>   23.6546    1.0000 </r>
       <r>   22.0872    1.0000 </r>
       <r>   30.7401    1.0000 </r>
       <r>   30.2956    1.0000 </r>
       <r>   28.9353    1.0000 </r>
       <r>   31.8226    1.0000 </r>
       <r>   27.5092    1.0000 </r>
       <r>   29.6608    1.0000 </r>
       <r>   21.8481    1.0000 </r>
       <r>   19.1560    1.0000 </r>
       <r>   12.9632    1.0000 </r>
       <r>   18.0218    1.0000 </r>
       <r>   26.8474    1.0000 </r>
       <r>   24.6329    1.0000 </r>
       <r>    8.7355    1.0000 </r>
       <r>   -1.0236    1.0000 </r>
       <r>    8.2906    1.0000 </r>
       <r>    2.1156    1.0000 </r>
       <r>   24.2288    1.0000 </r>
       <r>  -13.6812    1.0000 </r>
       <r>  -11.7185    1.0000 </r>
       <r>   -8.8683    1.0000 </r>
       <r>  -20.9755    1.0000 </r>
       <r>  -15.7437    1.0000 </r>
       <r>  -17.3742    1.0000 </r>
       <r>  -12.0021    1.0000 </r>
       <r>  -17.8552    1.0000 </r>
       <r>  -16.3031    1.0000 </r>
       <r>  -17.4372    1.0000 </r>
       <r>  -14.7702    1.0000 </r>
       <r>  -10.8421    1.0000 </r>
       <r>   38.7496    1.0000 </r>
       <r>   12.2224    1.0000 </r>
       <r>   37.0415    1.0000 </r>
       <r>    5.2591    1.0000 </r>
       <r>    9.1878    1.0000 </r>
       <r>   46.8654    1.0000 </r>
       <r>   76.1569    0.0406 </r>
       <r>   45.6129   -0.0354 </r>
       <r>    2.4875   -0.0000 </r>
       <r>   24.9048   -0.0000 </r>
       <r>   36.8176   -0.0000 </r>
       <r>   23.3349   -0.0000 </r>
       <r>   20.2733   -0.0000 </r>
       <r>   25.3072   -0.0000 </r>
       <r>   27.4881   -0.0000 </r>
       <r>   -6.7689   -0.0000 </r>
       <r>    7.2182   -0.0000 </r>
       <r>    0.4622   -0.0000 </r>
       <r>   -2.9406    0.0000 </r>
       <r>   -2.6671    0.0000 </r>
       <r>   26.1672    0.0000 </r>
       <r>   -4.0059    0.0000 </r>
       <r>   20.8699    0.0000 </r>
       <r>   25.1510    0.0000 </r>
       <r>   23.2611    0.0000 </r>
       <r>   22.7180    0.0000 </r>
       <r>    3.9379    0.0000 </r>
       <r>    3.2661    0.0000 </r>
       <r>   -2.2623    0.0000 </r>
       <r>    9.4479    0.0000 </r>
       <r>   17.6750    0.0000 </r>
       <r>   27.5610    0.0000 </r>
       <r>   28.0147    0.0000 </r>
       <r>    8.2995    0.0000 </r>
       <r>  -35.4972    0.0000 </r>
       <r>  -51.7239    0.0000 </r>
       <r>  -17.0798    0.0000 </r>
       <r>  -22.2079    0.0000 </r>
       <r>   29.8620    0.0000 </r>
       <r>   37.5590    0.0000 </r>
       <r>   38.4712    0.0000 </r>
       <r>   -7.2458    0.0000 </r>
       <r>   16.9158    0.0000 </r>
       <r>   13.3053    0.0000 </r>
       <r>   -4.5128    0.0000 </r>
       <r>   38.6746    0.0000 </r>
       <r>   30.0572    0.0000 </r>
       <r>   21.7436    0.0000 </r>
       <r>   29.1471    0.0000 </r>
       <r>   27.7789    0.0000 </r>
       <r>   27.9612    0.0000 </r>
       <r>   29.7882    0.0000 </r>
       <r>   15.8008    0.0000 </r>
       <r>   26.8981    0.0000 </r>
       <r>    8.6697    0.0000 </r>
       <r>   28.4988    0.0000 </r>
       <r>   22.2041    0.0000 </r>
       <r>   15.8241    0.0000 </r>
       <r>   24.9880    0.0000 </r>
       <r>   14.6262    0.0000 </r>
       <r>   -1.1169    0.0000 </r>
       <r>   17.4728    0.0000 </r>
       <r>    0.4189    0.0000 </r>
       <r>   10.5210    0.0000 </r>
       <r>  123.3004    0.0000 </r>
       <r>   32.4287    0.0000 </r>
       <r>   14.1694    0.0000 </r>
       <r>   34.8212    0.0000 </r>
       <r>   31.5218    0.0000 </r>
       <r>   21.2158    0.0000 </r>
       <r>   35.6266    0.0000 </r>
       <r>   33.5231    0.0000 </r>
       <r>   18.2863    0.0000 </r>
       <r>   37.1248    0.0000 </r>
       <r>   31.0516    0.0000 </r>
       <r>   42.5634    0.0000 </r>
       <r>   40.4213    0.0000 </r>
       <r>   47.6849    0.0000 </r>
       <r>   38.8408    0.0000 </r>
       <r>   37.8916    0.0000 </r>
       <r>   24.0202    0.0000 </r>
       <r>   33.5353    0.0000 </r>
       <r>   34.9851    0.0000 </r>
       <r>   30.9556    0.0000 </r>
       <r>   28.2484    0.0000 </r>
       <r>   16.1141    0.0000 </r>
       <r>   24.0191    0.0000 </r>
       <r>   30.8638    0.0000 </r>
       <r>   34.2311    0.0000 </r>
       <r>   20.4862    0.0000 </r>
       <r>   26.8428    0.0000 </r>
       <r>   34.6881    0.0000 </r>
       <r>   32.0844    0.0000 </r>
       <r>   38.8309    0.0000 </r>
       <r>   42.5283    0.0000 </r>
       <r>   33.6990    0.0000 </r>
       <r>   36.8946    0.0000 </r>
       <r>   49.7911    0.0000 </r>
       <r>   37.4017    0.0000 </r>
       <r>   29.9288    0.0000 </r>
       <r>   17.3517    0.0000 </r>
       <r>   41.5959    0.0000 </r>
       <r>   38.9969    0.0000 </r>
       <r>   43.1303    0.0000 </r>
       <r>   32.8317    0.0000 </r>
       <r>   32.9016    0.0000 </r>
       <r>   36.1966    0.0000 </r>
       <r>   34.9317    0.0000 </r>
       <r>   32.2806    0.0000 </r>
       <r>   26.4689    0.0000 </r>
       <r>   26.6653    0.0000 </r>
       <r>   27.9504    0.0000 </r>
       <r>   38.7702    0.0000 </r>
       <r>   37.3012    0.0000 </r>
       <r>   24.8668    0.0000 </r>
       <r>   31.3186    0.0000 </r>
       <r>   39.4506    0.0000 </r>
       <r>   37.4978    0.0000 </r>
       <r>   42.3333    0.0000 </r>
       <r>   40.1186    0.0000 </r>
       <r>   43.0701    0.0000 </r>
       <r>   46.8922    0.0000 </r>
       <r>   39.0158    0.0000 </r>
       <r>   48.3656    0.0000 </r>
       <r>   41.7258    0.0000 </r>
       <r>  -60.6589    0.0000 </r>
       <r>   41.8038    0.0000 </r>
       <r>   46.3000    0.0000 </r>
       <r>   50.0042    0.0000 </r>
       <r>   49.9763    0.0000 </r>
       <r>   37.7543    0.0000 </r>
       <r>   45.3342    0.0000 </r>
       <r>   45.6448    0.0000 </r>
       <r>   42.4703    0.0000 </r>
       <r>   41.0958    0.0000 </r>
       <r>   38.3027    0.0000 </r>
       <r>   44.3975    0.0000 </r>
       <r>   54.7253    0.0000 </r>
       <r>   39.8396    0.0000 </r>
       <r>   32.7369    0.0000 </r>
       <r>   44.2974    0.0000 </r>
       <r>   45.2075    0.0000 </r>
       <r>   39.6433    0.0000 </r>
       <r>   52.5712    0.0000 </r>
       <r>   46.1972    0.0000 </r>
       <r>   43.1894    0.0000 </r>
       <r>   48.9831    0.0000 </r>
       <r>   40.8566    0.0000 </r>
       <r>   41.4403    0.0000 </r>
       <r>   42.8775    0.0000 </r>
       <r>   40.2391    0.0000 </r>
       <r>   44.9965    0.0000 </r>
       <r>   46.1033    0.0000 </r>
       <r>   35.7262    0.0000 </r>
       <r>   42.1044    0.0000 </r>
       <r>   57.5816    0.0000 </r>
       <r>   43.3234    0.0000 </r>
       <r>   47.8238    0.0000 </r>
       <r>   49.9079    0.0000 </r>
       <r>   50.5776    0.0000 </r>
       <r>   36.4017    0.0000 </r>
       <r>   47.0110    0.0000 </r>
       <r>   50.0313    0.0000 </r>
       <r>   48.8736    0.0000 </r>
       <r>   39.1901    0.0000 </r>
       <r>   40.2480    0.0000 </r>
       <r>   49.0541    0.0000 </r>
       <r>   47.4118    0.0000 </r>
       <r>   45.5392    0.0000 </r>
       <r>   44.8617    0.0000 </r>
       <r>   46.2616    0.0000 </r>
       <r>   47.6898    0.0000 </r>
       <r>   49.4525    0.0000 </r>
       <r>   49.3611    0.0000 </r>
       <r>   57.7605    0.0000 </r>
       <r>   47.9745    0.0000 </r>
       <r>   50.8215    0.0000 </r>
       <r>   51.8543    0.0000 </r>
       <r>   54.9802    0.0000 </r>
       <r>   51.2423    0.0000 </r>
       <r>   49.4702    0.0000 </r>
       <r>   53.5449    0.0000 </r>
       <r>   56.1792    0.0000 </r>
       <r>   43.3716    0.0000 </r>
       <r>   55.2851    0.0000 </r>
       <r>   48.1994    0.0000 </r>
       <r>   50.8303    0.0000 </r>
       <r>   51.6228    0.0000 </r>
       <r>   46.1341    0.0000 </r>
       <r>   41.6259    0.0000 </r>
       <r>   47.4931    0.0000 </r>
       <r>   48.3429    0.0000 </r>
       <r>   48.6449    0.0000 </r>
       <r>   49.4152    0.0000 </r>
       <r>   49.8818    0.0000 </r>
       <r>   48.1834    0.0000 </r>
       <r>   54.4743    0.0000 </r>
       <r>   53.0335    0.0000 </r>
       <r>   43.4644    0.0000 </r>
       <r>   50.8154    0.0000 </r>
       <r>   53.2025    0.0000 </r>
       <r>   61.6497    0.0000 </r>
       <r>   52.0529    0.0000 </r>
       <r>   52.6776    0.0000 </r>
       <r>   51.5688    0.0000 </r>
       <r>   52.6110    0.0000 </r>
       <r>   50.4063    0.0000 </r>
       <r>   48.5907    0.0000 </r>
       <r>   50.9368    0.0000 </r>
       <r>   44.3625    0.0000 </r>
       <r>   49.8118    0.0000 </r>
       <r>   47.5384    0.0000 </r>
       <r>   47.8221    0.0000 </r>
       <r>   46.7588    0.0000 </r>
       <r>   52.2663    0.0000 </r>
       <r>   49.8904    0.0000 </r>
       <r>   46.0509    0.0000 </r>
       <r>   43.5045    0.0000 </r>
      </set>
      <set comment="kpoint 3">
       <r>   56.4488    1.0000 </r>
       <r>   55.0785    1.0000 </r>
       <r>   55.7604    1.0000 </r>
       <r>  -12.9155    1.0000 </r>
       <r>  -12.3408    1.0000 </r>
       <r>  -12.2420    1.0000 </r>
       <r>  -12.4315    1.0000 </r>
       <r>  -12.4574    1.0000 </r>
       <r>  -13.8133    1.0000 </r>
       <r>  -43.3009    1.0000 </r>
       <r>  -42.2014    1.0000 </r>
       <r>  -44.5923    1.0000 </r>
       <r>  -46.8996    1.0000 </r>
       <r>  -44.6417    1.0000 </r>
       <r>  -44.6667    1.0000 </r>
       <r> -120.6820    1.0000 </r>
       <r> -124.8287    1.0000 </r>
       <r> -124.7583    1.0000 </r>
       <r>   19.4585    1.0000 </r>
       <r>    7.4245    1.0000 </r>
       <r>    6.9281    1.0000 </r>
       <r>    7.4713    1.0000 </r>
       <r>    7.6593    1.0000 </r>
       <r>   -1.6116    1.0000 </r>
       <r>  -34.0256    1.0000 </r>
       <r>  -21.1290    1.0000 </r>
       <r>  -34.2016    1.0000 </r>
       <r>  -16.0981    1.0000 </r>
       <r>  -47.9218    1.0000 </r>
       <r>  -48.6294    1.0000 </r>
       <r>   36.5117    1.0000 </r>
       <r>   22.3489    1.0000 </r>
       <r>   25.0605    1.0000 </r>
       <r>   29.7433    1.0000 </r>
       <r>   33.6179    1.0000 </r>
       <r>   27.2017    1.0000 </r>
       <r>   30.7259    1.0000 </r>
       <r>   24.8063    1.0000 </r>
       <r>   28.9516    1.0000 </r>
       <r>   25.3984    1.0000 </r>
       <r>   18.2036    1.0000 </r>
       <r>   16.1080    1.0000 </r>
       <r>   23.1787    1.0000 </r>
       <r>   18.5954    1.0000 </r>
       <r>   25.7599    1.0000 </r>
       <r>   22.2372    1.0000 </r>
       <r>   19.0962    1.0000 </r>
       <r>   -4.1580    1.0000 </r>
       <r>   -9.9607    1.0000 </r>
       <r>   15.7197    1.0000 </r>
       <r>  -11.9659    1.0000 </r>
       <r>  -10.1195    1.0000 </r>
       <r>  -10.3405    1.0000 </r>
       <r>  -20.5556    1.0000 </r>
       <r>  -13.8005    1.0000 </r>
       <r>  -18.0808    1.0000 </r>
       <r>  -16.8383    1.0000 </r>
       <r>  -14.3754    1.0000 </r>
       <r>  -17.1228    1.0000 </r>
       <r>  -17.2856    1.0000 </r>
       <r>  -13.9337    1.0000 </r>
       <r>   -5.8749    1.0000 </r>
       <r>  -17.8800    1.0000 </r>
       <r>   62.2227    1.0000 </r>
       <r>   65.8642    1.0000 </r>
       <r>   -1.0200    1.0000 </r>
       <r>   56.6700    1.0000 </r>
       <r>  -12.1446    1.0000 </r>
       <r>   28.3968    0.9752 </r>
       <r>   15.8031    0.0736 </r>
       <r>   72.7114   -0.0000 </r>
       <r>   24.6553   -0.0000 </r>
       <r>   32.4466   -0.0000 </r>
       <r>   23.8249   -0.0000 </r>
       <r>   22.4209   -0.0000 </r>
       <r>   27.9229   -0.0000 </r>
       <r>   20.8495   -0.0000 </r>
       <r>   -7.1148   -0.0000 </r>
       <r>    0.2071   -0.0000 </r>
       <r>    0.1446   -0.0000 </r>
       <r>   -0.9698   -0.0000 </r>
       <r>   -3.2280    0.0000 </r>
       <r>   14.9340    0.0000 </r>
       <r>    2.2064    0.0000 </r>
       <r>   24.3478    0.0000 </r>
       <r>   24.3472    0.0000 </r>
       <r>   27.1453    0.0000 </r>
       <r>   30.7304    0.0000 </r>
       <r>   12.3949    0.0000 </r>
       <r>    1.8811    0.0000 </r>
       <r>    7.8819    0.0000 </r>
       <r>   -1.1136    0.0000 </r>
       <r>   21.6355    0.0000 </r>
       <r>   23.9138    0.0000 </r>
       <r>   35.0236    0.0000 </r>
       <r>   13.7151    0.0000 </r>
       <r>    6.5476    0.0000 </r>
       <r>  -35.3058    0.0000 </r>
       <r>  -39.8911    0.0000 </r>
       <r>  -36.8745    0.0000 </r>
       <r>   28.9860    0.0000 </r>
       <r>   19.7359    0.0000 </r>
       <r>    0.3109    0.0000 </r>
       <r>   12.1077    0.0000 </r>
       <r>   30.2093    0.0000 </r>
       <r>   10.0215    0.0000 </r>
       <r>  -15.8543    0.0000 </r>
       <r>   31.3891    0.0000 </r>
       <r>   27.1614    0.0000 </r>
       <r>   35.2878    0.0000 </r>
       <r>   21.3001    0.0000 </r>
       <r>   28.8580    0.0000 </r>
       <r>   22.1062    0.0000 </r>
       <r>   26.4959    0.0000 </r>
       <r>   17.1787    0.0000 </r>
       <r>   33.4920    0.0000 </r>
       <r>    2.6500    0.0000 </r>
       <r>   16.3847    0.0000 </r>
       <r>   16.0223    0.0000 </r>
       <r>   41.0475    0.0000 </r>
       <r>   18.0855    0.0000 </r>
       <r>   14.3906    0.0000 </r>
       <r>   16.1357    0.0000 </r>
       <r>   22.0233    0.0000 </r>
       <r>   12.8888    0.0000 </r>
       <r>   17.0676    0.0000 </r>
       <r>   17.7629    0.0000 </r>
       <r>  127.6124    0.0000 </r>
       <r>   22.4364    0.0000 </r>
       <r>    7.8096    0.0000 </r>
       <r>   16.8185    0.0000 </r>
       <r>   32.2971    0.0000 </r>
       <r>   19.1764    0.0000 </r>
       <r>   45.4091    0.0000 </r>
       <r>   34.8698    0.0000 </r>
       <r>   24.6336    0.0000 </r>
       <r>   38.2136    0.0000 </r>
       <r>   39.3042    0.0000 </r>
       <r>   23.1754    0.0000 </r>
       <r>   40.9865    0.0000 </r>
       <r>   32.6044    0.0000 </r>
       <r>   36.0166    0.0000 </r>
       <r>   29.7699    0.0000 </r>
       <r>   40.7278    0.0000 </r>
       <r>   36.9774    0.0000 </r>
       <r>   23.4178    0.0000 </r>
       <r>   28.0283    0.0000 </r>
       <r>   30.6437    0.0000 </r>
       <r>   25.4173    0.0000 </r>
       <r>   34.8846    0.0000 </r>
       <r>   20.5919    0.0000 </r>
       <r>   31.5100    0.0000 </r>
       <r>   27.8378    0.0000 </r>
       <r>   36.7109    0.0000 </r>
       <r>   45.9609    0.0000 </r>
       <r>   26.3172    0.0000 </r>
       <r>   38.8613    0.0000 </r>
       <r>   41.8325    0.0000 </r>
       <r>   33.9125    0.0000 </r>
       <r>   31.8821    0.0000 </r>
       <r>   35.8321    0.0000 </r>
       <r>   34.9322    0.0000 </r>
       <r>   23.6078    0.0000 </r>
       <r>   15.6291    0.0000 </r>
       <r>   31.2694    0.0000 </r>
       <r>   35.8781    0.0000 </r>
       <r>   33.0941    0.0000 </r>
       <r>   26.2167    0.0000 </r>
       <r>   25.3999    0.0000 </r>
       <r>   41.9998    0.0000 </r>
       <r>   40.1621    0.0000 </r>
       <r>   42.0609    0.0000 </r>
       <r>   38.5716    0.0000 </r>
       <r>   40.2384    0.0000 </r>
       <r>   35.2472    0.0000 </r>
       <r>   37.7480    0.0000 </r>
       <r>   37.0541    0.0000 </r>
       <r>   47.9408    0.0000 </r>
       <r>   50.5246    0.0000 </r>
       <r>   40.6773    0.0000 </r>
       <r>   34.4717    0.0000 </r>
       <r>   42.3864    0.0000 </r>
       <r>   40.0656    0.0000 </r>
       <r>   41.9946    0.0000 </r>
       <r>   41.3750    0.0000 </r>
       <r>   22.2411    0.0000 </r>
       <r>   38.3358    0.0000 </r>
       <r>  -19.5434    0.0000 </r>
       <r>   43.0714    0.0000 </r>
       <r>   47.5156    0.0000 </r>
       <r>   51.3308    0.0000 </r>
       <r>   52.8419    0.0000 </r>
       <r>   39.5232    0.0000 </r>
       <r>   38.3431    0.0000 </r>
       <r>   45.2509    0.0000 </r>
       <r>   34.7432    0.0000 </r>
       <r>   44.4768    0.0000 </r>
       <r>   36.0773    0.0000 </r>
       <r>   53.1709    0.0000 </r>
       <r>   43.8650    0.0000 </r>
       <r>   44.6136    0.0000 </r>
       <r>   39.5445    0.0000 </r>
       <r>   35.2736    0.0000 </r>
       <r>   41.7066    0.0000 </r>
       <r>   49.2537    0.0000 </r>
       <r>   47.3359    0.0000 </r>
       <r>   45.9658    0.0000 </r>
       <r>   40.8196    0.0000 </r>
       <r>   39.3568    0.0000 </r>
       <r>   36.2520    0.0000 </r>
       <r>   48.1355    0.0000 </r>
       <r>   39.1668    0.0000 </r>
       <r>   45.3838    0.0000 </r>
       <r>   47.9266    0.0000 </r>
       <r>   43.4094    0.0000 </r>
       <r>   41.4520    0.0000 </r>
       <r>   45.5369    0.0000 </r>
       <r>   42.3416    0.0000 </r>
       <r>   47.2648    0.0000 </r>
       <r>   33.0995    0.0000 </r>
       <r>   43.4543    0.0000 </r>
       <r>   43.5722    0.0000 </r>
       <r>   43.2498    0.0000 </r>
       <r>   38.7197    0.0000 </r>
       <r>   50.1280    0.0000 </r>
       <r>   49.7039    0.0000 </r>
       <r>   45.5424    0.0000 </r>
       <r>   53.2716    0.0000 </r>
       <r>   51.0533    0.0000 </r>
       <r>   47.4468    0.0000 </r>
       <r>   47.7954    0.0000 </r>
       <r>   52.7442    0.0000 </r>
       <r>   47.3795    0.0000 </r>
       <r>   46.4912    0.0000 </r>
       <r>   49.3634    0.0000 </r>
       <r>   53.6294    0.0000 </r>
       <r>   53.4136    0.0000 </r>
       <r>   52.0058    0.0000 </r>
       <r>   50.2210    0.0000 </r>
       <r>   47.8606    0.0000 </r>
       <r>   44.8308    0.0000 </r>
       <r>   42.7915    0.0000 </r>
       <r>   46.9929    0.0000 </r>
       <r>   57.7192    0.0000 </r>
       <r>   47.6203    0.0000 </r>
       <r>   48.8329    0.0000 </r>
       <r>   51.4824    0.0000 </r>
       <r>   49.2823    0.0000 </r>
       <r>   45.6746    0.0000 </r>
       <r>   49.1173    0.0000 </r>
       <r>   46.9960    0.0000 </r>
       <r>   51.1627    0.0000 </r>
       <r>   51.4174    0.0000 </r>
       <r>   50.5282    0.0000 </r>
       <r>   52.6980    0.0000 </r>
       <r>   52.8696    0.0000 </r>
       <r>   47.7122    0.0000 </r>
       <r>   50.6696    0.0000 </r>
       <r>   50.6294    0.0000 </r>
       <r>   48.3983    0.0000 </r>
       <r>   53.8770    0.0000 </r>
       <r>   46.8669    0.0000 </r>
       <r>   48.2658    0.0000 </r>
       <r>   48.9964    0.0000 </r>
       <r>   51.9623    0.0000 </r>
       <r>   56.9951    0.0000 </r>
       <r>   54.5965    0.0000 </r>
       <r>   50.3475    0.0000 </r>
       <r>   50.4857    0.0000 </r>
       <r>   46.1304    0.0000 </r>
       <r>   47.4839    0.0000 </r>
       <r>   50.9752    0.0000 </r>
       <r>   51.0932    0.0000 </r>
       <r>   48.0858    0.0000 </r>
       <r>   46.9767    0.0000 </r>
       <r>   52.5994    0.0000 </r>
       <r>   46.1570    0.0000 </r>
       <r>   44.3855    0.0000 </r>
       <r>   50.3401    0.0000 </r>
       <r>   42.5904    0.0000 </r>
      </set>
      <set comment="kpoint 4">
       <r>   56.4358    1.0000 </r>
       <r>   55.1118    1.0000 </r>
       <r>   55.7806    1.0000 </r>
       <r>  -12.9171    1.0000 </r>
       <r>  -12.3394    1.0000 </r>
       <r>  -12.2403    1.0000 </r>
       <r>  -12.4322    1.0000 </r>
       <r>  -12.4562    1.0000 </r>
       <r>  -13.8153    1.0000 </r>
       <r>  -43.3176    1.0000 </r>
       <r>  -42.1908    1.0000 </r>
       <r>  -44.4612    1.0000 </r>
       <r>  -47.6106    1.0000 </r>
       <r>  -44.4687    1.0000 </r>
       <r>  -44.6670    1.0000 </r>
       <r> -119.9750    1.0000 </r>
       <r> -125.0503    1.0000 </r>
       <r> -124.8697    1.0000 </r>
       <r>   19.8528    1.0000 </r>
       <r>    7.0050    1.0000 </r>
       <r>    6.5257    1.0000 </r>
       <r>    8.0574    1.0000 </r>
       <r>    7.5468    1.0000 </r>
       <r>    6.7286    1.0000 </r>
       <r>  -33.9261    1.0000 </r>
       <r>  -32.9840    1.0000 </r>
       <r>  -34.3425    1.0000 </r>
       <r>  -12.5211    1.0000 </r>
       <r>  -48.0292    1.0000 </r>
       <r>  -48.6705    1.0000 </r>
       <r>   34.0678    1.0000 </r>
       <r>   37.6474    1.0000 </r>
       <r>   31.6028    1.0000 </r>
       <r>   27.5902    1.0000 </r>
       <r>   26.1856    1.0000 </r>
       <r>   24.4055    1.0000 </r>
       <r>   21.4209    1.0000 </r>
       <r>   26.3055    1.0000 </r>
       <r>   20.3543    1.0000 </r>
       <r>   24.9891    1.0000 </r>
       <r>   28.3165    1.0000 </r>
       <r>   15.6177    1.0000 </r>
       <r>   24.7909    1.0000 </r>
       <r>   26.3584    1.0000 </r>
       <r>   21.8060    1.0000 </r>
       <r>   17.7625    1.0000 </r>
       <r>   19.9859    1.0000 </r>
       <r>   21.9135    1.0000 </r>
       <r>  -11.0747    1.0000 </r>
       <r>   -9.4492    1.0000 </r>
       <r>  -14.4602    1.0000 </r>
       <r>  -10.6650    1.0000 </r>
       <r>  -10.5606    1.0000 </r>
       <r>  -18.8611    1.0000 </r>
       <r>  -15.0339    1.0000 </r>
       <r>  -19.2957    1.0000 </r>
       <r>  -17.5801    1.0000 </r>
       <r>  -11.2681    1.0000 </r>
       <r>  -17.8031    1.0000 </r>
       <r>  -19.4542    1.0000 </r>
       <r>   -5.1943    1.0000 </r>
       <r>  -13.4774    1.0000 </r>
       <r>   27.3217    1.0000 </r>
       <r>   25.2077    1.0000 </r>
       <r>   74.5839    1.0000 </r>
       <r>  -13.1520    1.0000 </r>
       <r>   61.3993    1.0000 </r>
       <r>  -26.6646    1.0000 </r>
       <r>    7.8119    1.0151 </r>
       <r>   56.9675    1.0006 </r>
       <r>   62.2726   -0.0000 </r>
       <r>   31.3485   -0.0000 </r>
       <r>   23.6677   -0.0000 </r>
       <r>   19.5731   -0.0000 </r>
       <r>   24.4213   -0.0000 </r>
       <r>   28.9787   -0.0000 </r>
       <r>   21.1141   -0.0000 </r>
       <r>   -7.1111   -0.0000 </r>
       <r>   -2.3571   -0.0000 </r>
       <r>   -0.8333   -0.0000 </r>
       <r>   -0.6495   -0.0000 </r>
       <r>   -3.3270    0.0000 </r>
       <r>   -6.6047    0.0000 </r>
       <r>   24.6337    0.0000 </r>
       <r>   24.6490    0.0000 </r>
       <r>   24.3404    0.0000 </r>
       <r>   27.4285    0.0000 </r>
       <r>   28.7278    0.0000 </r>
       <r>   32.9333    0.0000 </r>
       <r>    3.6416    0.0000 </r>
       <r>   11.7360    0.0000 </r>
       <r>   -0.4879    0.0000 </r>
       <r>    3.0393    0.0000 </r>
       <r>   22.8771    0.0000 </r>
       <r>   -6.5429    0.0000 </r>
       <r>   12.0244    0.0000 </r>
       <r>   25.6774    0.0000 </r>
       <r>   16.6126    0.0000 </r>
       <r>  -16.1680    0.0000 </r>
       <r>  -12.7915    0.0000 </r>
       <r>  -38.3294    0.0000 </r>
       <r>    3.7541    0.0000 </r>
       <r>  -32.7041    0.0000 </r>
       <r>   40.2616    0.0000 </r>
       <r>  -40.1818    0.0000 </r>
       <r>   43.2420    0.0000 </r>
       <r>   19.2048    0.0000 </r>
       <r>   17.6187    0.0000 </r>
       <r>   28.8618    0.0000 </r>
       <r>   33.2498    0.0000 </r>
       <r>   33.0348    0.0000 </r>
       <r>   34.6437    0.0000 </r>
       <r>   29.1041    0.0000 </r>
       <r>   17.5501    0.0000 </r>
       <r>   26.7751    0.0000 </r>
       <r>   20.4414    0.0000 </r>
       <r>   36.3634    0.0000 </r>
       <r>   10.1944    0.0000 </r>
       <r>   15.8543    0.0000 </r>
       <r>   19.3746    0.0000 </r>
       <r>   10.7764    0.0000 </r>
       <r>   23.5066    0.0000 </r>
       <r>   16.6700    0.0000 </r>
       <r>   14.2004    0.0000 </r>
       <r>   10.4658    0.0000 </r>
       <r>   13.7985    0.0000 </r>
       <r>   23.9156    0.0000 </r>
       <r>  128.9409    0.0000 </r>
       <r>   15.8736    0.0000 </r>
       <r>   33.9858    0.0000 </r>
       <r>   23.1540    0.0000 </r>
       <r>   31.2666    0.0000 </r>
       <r>   24.7573    0.0000 </r>
       <r>    1.6271    0.0000 </r>
       <r>   46.0163    0.0000 </r>
       <r>   21.9971    0.0000 </r>
       <r>   38.5454    0.0000 </r>
       <r>   39.0463    0.0000 </r>
       <r>   31.1506    0.0000 </r>
       <r>   21.3136    0.0000 </r>
       <r>   56.7209    0.0000 </r>
       <r>   53.9381    0.0000 </r>
       <r>   37.8854    0.0000 </r>
       <r>   13.3629    0.0000 </r>
       <r>   37.6569    0.0000 </r>
       <r>   40.8391    0.0000 </r>
       <r>   45.5927    0.0000 </r>
       <r>   17.9365    0.0000 </r>
       <r>   26.3929    0.0000 </r>
       <r>   31.2256    0.0000 </r>
       <r>   26.5307    0.0000 </r>
       <r>   18.4908    0.0000 </r>
       <r>   25.5119    0.0000 </r>
       <r>   42.3216    0.0000 </r>
       <r>   29.3626    0.0000 </r>
       <r>   36.6150    0.0000 </r>
       <r>   44.3825    0.0000 </r>
       <r>   37.8803    0.0000 </r>
       <r>   29.3227    0.0000 </r>
       <r>   27.0847    0.0000 </r>
       <r>   25.2754    0.0000 </r>
       <r>   39.9567    0.0000 </r>
       <r>   23.9832    0.0000 </r>
       <r>   24.6363    0.0000 </r>
       <r>   12.6274    0.0000 </r>
       <r>   23.1514    0.0000 </r>
       <r>   18.1844    0.0000 </r>
[...]
       <r>   122.1638    -0.0000   558.8704 </r>
       <r>   122.2200    -0.0000   558.8704 </r>
       <r>   122.2761    -0.0000   558.8704 </r>
       <r>   122.3323    -0.0000   558.8704 </r>
       <r>   122.3884    -0.0000   558.8704 </r>
       <r>   122.4446    -0.0000   558.8704 </r>
       <r>   122.5007    -0.0000   558.8704 </r>
       <r>   122.5569    -0.0000   558.8704 </r>
       <r>   122.6130    -0.0007   558.8703 </r>
       <r>   122.6692    -0.0057   558.8700 </r>
       <r>   122.7253    -0.0156   558.8691 </r>
       <r>   122.7815     0.0211   558.8703 </r>
       <r>   122.8376     0.1706   558.8799 </r>
       <r>   122.8938     0.2949   558.8965 </r>
       <r>   122.9499     0.3400   558.9155 </r>
       <r>   123.0061     0.4816   558.9426 </r>
       <r>   123.0622     0.4866   558.9699 </r>
       <r>   123.1184     0.2048   558.9814 </r>
       <r>   123.1745    -0.0162   558.9805 </r>
       <r>   123.2307     0.0901   558.9856 </r>
       <r>   123.2868     0.4618   559.0115 </r>
       <r>   123.3430     0.5721   559.0436 </r>
       <r>   123.3991     0.2370   559.0569 </r>
       <r>   123.4553    -0.0158   559.0560 </r>
       <r>   123.5114     0.0300   559.0577 </r>
       <r>   123.5676     0.2146   559.0698 </r>
       <r>   123.6237     0.2737   559.0851 </r>
       <r>   123.6799     0.2715   559.1004 </r>
       <r>   123.7360     0.4583   559.1261 </r>
       <r>   123.7922     0.5064   559.1545 </r>
       <r>   123.8483     0.2336   559.1677 </r>
       <r>   123.9045     0.0123   559.1684 </r>
       <r>   123.9606    -0.0229   559.1671 </r>
       <r>   124.0168    -0.0118   559.1664 </r>
       <r>   124.0729    -0.0157   559.1655 </r>
       <r>   124.1291     0.0179   559.1665 </r>
       <r>   124.1852     0.1738   559.1763 </r>
       <r>   124.2414     0.3000   559.1931 </r>
       <r>   124.2975     0.1856   559.2036 </r>
       <r>   124.3537     0.0220   559.2048 </r>
       <r>   124.4098    -0.0250   559.2034 </r>
       <r>   124.4660    -0.0164   559.2025 </r>
       <r>   124.5221     0.0772   559.2068 </r>
       <r>   124.5783     0.2528   559.2210 </r>
       <r>   124.6344     0.2566   559.2354 </r>
       <r>   124.6906     0.1168   559.2420 </r>
       <r>   124.7467     0.1731   559.2517 </r>
       <r>   124.8029     0.2891   559.2679 </r>
       <r>   124.8590     0.1764   559.2778 </r>
       <r>   124.9152     0.0201   559.2789 </r>
       <r>   124.9713    -0.0150   559.2781 </r>
       <r>   125.0275    -0.0052   559.2778 </r>
       <r>   125.0836    -0.0006   559.2778 </r>
       <r>   125.1398    -0.0001   559.2778 </r>
       <r>   125.1959    -0.0011   559.2777 </r>
       <r>   125.2521    -0.0081   559.2773 </r>
       <r>   125.3082    -0.0195   559.2762 </r>
       <r>   125.3644     0.0382   559.2783 </r>
       <r>   125.4205     0.2567   559.2927 </r>
       <r>   125.4767     0.4217   559.3164 </r>
       <r>   125.5328     0.2764   559.3319 </r>
       <r>   125.5890     0.0534   559.3349 </r>
       <r>   125.6451    -0.0172   559.3339 </r>
       <r>   125.7013    -0.0093   559.3334 </r>
       <r>   125.7574    -0.0015   559.3333 </r>
       <r>   125.8135    -0.0001   559.3333 </r>
       <r>   125.8697    -0.0000   559.3333 </r>
       <r>   125.9258    -0.0000   559.3333 </r>
       <r>   125.9820    -0.0000   559.3333 </r>
       <r>   126.0381    -0.0001   559.3333 </r>
       <r>   126.0943    -0.0019   559.3332 </r>
       <r>   126.1504    -0.0100   559.3327 </r>
       <r>   126.2066    -0.0106   559.3321 </r>
       <r>   126.2627     0.0801   559.3366 </r>
       <r>   126.3189     0.2559   559.3509 </r>
       <r>   126.3750     0.2561   559.3653 </r>
       <r>   126.4312     0.1008   559.3710 </r>
       <r>   126.4873     0.1404   559.3788 </r>
       <r>   126.5435     0.2854   559.3949 </r>
       <r>   126.5996     0.2077   559.4065 </r>
       <r>   126.6558     0.0344   559.4085 </r>
       <r>   126.7119    -0.0295   559.4068 </r>
       <r>   126.7681    -0.0133   559.4061 </r>
       <r>   126.8242     0.1171   559.4126 </r>
       <r>   126.8804     0.3477   559.4322 </r>
       <r>   126.9365     0.4615   559.4581 </r>
       <r>   126.9927     0.3360   559.4769 </r>
       <r>   127.0488     0.1072   559.4830 </r>
       <r>   127.1050    -0.0090   559.4824 </r>
       <r>   127.1611    -0.0139   559.4817 </r>
       <r>   127.2173    -0.0044   559.4814 </r>
       <r>   127.2734    -0.0083   559.4810 </r>
       <r>   127.3296    -0.0141   559.4802 </r>
       <r>   127.3857     0.0519   559.4831 </r>
       <r>   127.4419     0.2220   559.4955 </r>
       <r>   127.4980     0.2777   559.5111 </r>
       <r>   127.5542     0.2030   559.5225 </r>
       <r>   127.6103     0.2467   559.5364 </r>
       <r>   127.6665     0.2548   559.5507 </r>
       <r>   127.7226     0.2043   559.5622 </r>
       <r>   127.7788     0.2625   559.5769 </r>
       <r>   127.8349     0.2970   559.5936 </r>
       <r>   127.8911     0.3826   559.6151 </r>
       <r>   127.9472     0.4828   559.6422 </r>
       <r>   128.0034     0.3538   559.6620 </r>
       <r>   128.0595     0.2135   559.6740 </r>
       <r>   128.1157     0.2617   559.6887 </r>
       <r>   128.1718     0.2893   559.7050 </r>
       <r>   128.2280     0.3024   559.7219 </r>
       <r>   128.2841     0.2621   559.7367 </r>
       <r>   128.3403     0.0946   559.7420 </r>
       <r>   128.3964    -0.0075   559.7415 </r>
       <r>   128.4526    -0.0116   559.7409 </r>
       <r>   128.5087    -0.0025   559.7408 </r>
       <r>   128.5649    -0.0004   559.7407 </r>
       <r>   128.6210    -0.0021   559.7406 </r>
       <r>   128.6772    -0.0109   559.7400 </r>
       <r>   128.7333    -0.0113   559.7394 </r>
       <r>   128.7895     0.0795   559.7438 </r>
       <r>   128.8456     0.2624   559.7586 </r>
       <r>   128.9018     0.3527   559.7784 </r>
       <r>   128.9579     0.3290   559.7968 </r>
       <r>   129.0141     0.2302   559.8098 </r>
       <r>   129.0702     0.1428   559.8178 </r>
       <r>   129.1264     0.2571   559.8322 </r>
       <r>   129.1825     0.4170   559.8556 </r>
       <r>   129.2387     0.3946   559.8778 </r>
       <r>   129.2948     0.1987   559.8889 </r>
       <r>   129.3510     0.0231   559.8902 </r>
       <r>   129.4071    -0.0235   559.8889 </r>
       <r>   129.4633    -0.0218   559.8877 </r>
       <r>   129.5194     0.0299   559.8894 </r>
       <r>   129.5756     0.1984   559.9005 </r>
       <r>   129.6317     0.2987   559.9173 </r>
       <r>   129.6879     0.1606   559.9263 </r>
       <r>   129.7440     0.0096   559.9269 </r>
       <r>   129.8002    -0.0265   559.9254 </r>
       <r>   129.8563    -0.0092   559.9248 </r>
       <r>   129.9125     0.1064   559.9308 </r>
       <r>   129.9686     0.2679   559.9459 </r>
       <r>   130.0248     0.2459   559.9597 </r>
       <r>   130.0809     0.1930   559.9705 </r>
       <r>   130.1371     0.2766   559.9860 </r>
       <r>   130.1932     0.2213   559.9985 </r>
       <r>   130.2494     0.0508   560.0013 </r>
       <r>   130.3055    -0.0142   560.0005 </r>
       <r>   130.3617    -0.0079   560.0001 </r>
       <r>   130.4178    -0.0012   560.0000 </r>
       <r>   130.4740    -0.0001   560.0000 </r>
       <r>   130.5301    -0.0000   560.0000 </r>
       <r>   130.5863    -0.0000   560.0000 </r>
       <r>   130.6424    -0.0000   560.0000 </r>
       <r>   130.6986    -0.0000   560.0000 </r>
       <r>   130.7547    -0.0000   560.0000 </r>
       <r>   130.8109     0.0000   560.0000 </r>
       <r>   130.8670     0.0000   560.0000 </r>
       <r>   130.9232     0.0000   560.0000 </r>
       <r>   130.9793     0.0000   560.0000 </r>
       <r>   131.0355     0.0000   560.0000 </r>
       <r>   131.0916     0.0000   560.0000 </r>
       <r>   131.1478     0.0000   560.0000 </r>
       <r>   131.2039     0.0000   560.0000 </r>
       <r>   131.2601     0.0000   560.0000 </r>
       <r>   131.3162     0.0000   560.0000 </r>
       <r>   131.3724     0.0000   560.0000 </r>
       <r>   131.4285     0.0000   560.0000 </r>
       <r>   131.4847     0.0000   560.0000 </r>
       <r>   131.5408     0.0000   560.0000 </r>
       <r>   131.5970     0.0000   560.0000 </r>
       <r>   131.6531     0.0000   560.0000 </r>
       <r>   131.7093     0.0000   560.0000 </r>
       <r>   131.7654     0.0000   560.0000 </r>
       <r>   131.8216     0.0000   560.0000 </r>
       <r>   131.8777     0.0000   560.0000 </r>
       <r>   131.9339     0.0000   560.0000 </r>
       <r>   131.9900     0.0000   560.0000 </r>
       <r>   132.0462     0.0000   560.0000 </r>
       <r>   132.1023     0.0000   560.0000 </r>
       <r>   132.1585     0.0000   560.0000 </r>
       <r>   132.2146     0.0000   560.0000 </r>
       <r>   132.2708     0.0000   560.0000 </r>
       <r>   132.3269     0.0000   560.0000 </r>
       <r>   132.3831     0.0000   560.0000 </r>
       <r>   132.4392     0.0000   560.0000 </r>
       <r>   132.4954     0.0000   560.0000 </r>
       <r>   132.5515     0.0000   560.0000 </r>
       <r>   132.6077     0.0000   560.0000 </r>
       <r>   132.6638     0.0000   560.0000 </r>
       <r>   132.7200     0.0000   560.0000 </r>
       <r>   132.7761     0.0000   560.0000 </r>
       <r>   132.8323     0.0000   560.0000 </r>
       <r>   132.8884     0.0000   560.0000 </r>
       <r>   132.9446     0.0000   560.0000 </r>
       <r>   133.0007     0.0000   560.0000 </r>
       <r>   133.0569     0.0000   560.0000 </r>
       <r>   133.1130     0.0000   560.0000 </r>
       <r>   133.1692     0.0000   560.0000 </r>
       <r>   133.2253     0.0000   560.0000 </r>
       <r>   133.2815     0.0000   560.0000 </r>
       <r>   133.3376     0.0000   560.0000 </r>
       <r>   133.3938     0.0000   560.0000 </r>
       <r>   133.4499     0.0000   560.0000 </r>
       <r>   133.5061     0.0000   560.0000 </r>
       <r>   133.5622     0.0000   560.0000 </r>
       <r>   133.6184     0.0000   560.0000 </r>
       <r>   133.6745     0.0000   560.0000 </r>
       <r>   133.7307     0.0000   560.0000 </r>
       <r>   133.7868     0.0000   560.0000 </r>
       <r>   133.8429     0.0000   560.0000 </r>
       <r>   133.8991     0.0000   560.0000 </r>
       <r>   133.9552     0.0000   560.0000 </r>
       <r>   134.0114     0.0000   560.0000 </r>
       <r>   134.0675     0.0000   560.0000 </r>
       <r>   134.1237     0.0000   560.0000 </r>
       <r>   134.1798     0.0000   560.0000 </r>
       <r>   134.2360     0.0000   560.0000 </r>
       <r>   134.2921     0.0000   560.0000 </r>
       <r>   134.3483     0.0000   560.0000 </r>
       <r>   134.4044     0.0000   560.0000 </r>
       <r>   134.4606     0.0000   560.0000 </r>
       <r>   134.5167     0.0000   560.0000 </r>
       <r>   134.5729     0.0000   560.0000 </r>
       <r>   134.6290     0.0000   560.0000 </r>
       <r>   134.6852     0.0000   560.0000 </r>
       <r>   134.7413     0.0000   560.0000 </r>
       <r>   134.7975     0.0000   560.0000 </r>
       <r>   134.8536     0.0000   560.0000 </r>
       <r>   134.9098     0.0000   560.0000 </r>
       <r>   134.9659     0.0000   560.0000 </r>
       <r>   135.0221     0.0000   560.0000 </r>
       <r>   135.0782     0.0000   560.0000 </r>
       <r>   135.1344     0.0000   560.0000 </r>
       <r>   135.1905     0.0000   560.0000 </r>
       <r>   135.2467     0.0000   560.0000 </r>
       <r>   135.3028     0.0000   560.0000 </r>
       <r>   135.3590     0.0000   560.0000 </r>
       <r>   135.4151     0.0000   560.0000 </r>
       <r>   135.4713     0.0000   560.0000 </r>
       <r>   135.5274     0.0000   560.0000 </r>
       <r>   135.5836     0.0000   560.0000 </r>
       <r>   135.6397     0.0000   560.0000 </r>
       <r>   135.6959     0.0000   560.0000 </r>
       <r>   135.7520     0.0000   560.0000 </r>
       <r>   135.8082     0.0000   560.0000 </r>
       <r>   135.8643     0.0000   560.0000 </r>
       <r>   135.9205     0.0000   560.0000 </r>
       <r>   135.9766     0.0000   560.0000 </r>
       <r>   136.0328     0.0000   560.0000 </r>
       <r>   136.0889     0.0000   560.0000 </r>
       <r>   136.1451     0.0000   560.0000 </r>
       <r>   136.2012     0.0000   560.0000 </r>
       <r>   136.2574     0.0000   560.0000 </r>
       <r>   136.3135     0.0000   560.0000 </r>
       <r>   136.3697     0.0000   560.0000 </r>
       <r>   136.4258     0.0000   560.0000 </r>
       <r>   136.4820     0.0000   560.0000 </r>
       <r>   136.5381     0.0000   560.0000 </r>
       <r>   136.5943     0.0000   560.0000 </r>
       <r>   136.6504     0.0000   560.0000 </r>
       <r>   136.7066     0.0000   560.0000 </r>
       <r>   136.7627     0.0000   560.0000 </r>
       <r>   136.8189     0.0000   560.0000 </r>
       <r>   136.8750     0.0000   560.0000 </r>
       <r>   136.9312     0.0000   560.0000 </r>
       <r>   136.9873     0.0000   560.0000 </r>
       <r>   137.0435     0.0000   560.0000 </r>
       <r>   137.0996     0.0000   560.0000 </r>
       <r>   137.1558     0.0000   560.0000 </r>
       <r>   137.2119     0.0000   560.0000 </r>
       <r>   137.2681     0.0000   560.0000 </r>
       <r>   137.3242     0.0000   560.0000 </r>
       <r>   137.3804     0.0000   560.0000 </r>
       <r>   137.4365     0.0000   560.0000 </r>
       <r>   137.4927     0.0000   560.0000 </r>
       <r>   137.5488     0.0000   560.0000 </r>
       <r>   137.6050     0.0000   560.0000 </r>
       <r>   137.6611     0.0000   560.0000 </r>
       <r>   137.7173     0.0000   560.0000 </r>
       <r>   137.7734     0.0000   560.0000 </r>
       <r>   137.8296     0.0000   560.0000 </r>
       <r>   137.8857     0.0000   560.0000 </r>
       <r>   137.9419     0.0000   560.0000 </r>
       <r>   137.9980     0.0000   560.0000 </r>
       <r>   138.0542     0.0000   560.0000 </r>
       <r>   138.1103     0.0000   560.0000 </r>
       <r>   138.1665     0.0000   560.0000 </r>
       <r>   138.2226     0.0000   560.0000 </r>
       <r>   138.2788     0.0000   560.0000 </r>
       <r>   138.3349     0.0000   560.0000 </r>
       <r>   138.3911     0.0000   560.0000 </r>
       <r>   138.4472     0.0000   560.0000 </r>
       <r>   138.5034     0.0000   560.0000 </r>
       <r>   138.5595     0.0000   560.0000 </r>
       <r>   138.6157     0.0000   560.0000 </r>
       <r>   138.6718     0.0000   560.0000 </r>
       <r>   138.7280     0.0000   560.0000 </r>
       <r>   138.7841     0.0000   560.0000 </r>
       <r>   138.8403     0.0000   560.0000 </r>
       <r>   138.8964     0.0000   560.0000 </r>
       <r>   138.9526     0.0000   560.0000 </r>
       <r>   139.0087     0.0000   560.0000 </r>
       <r>   139.0649     0.0000   560.0000 </r>
       <r>   139.1210     0.0000   560.0000 </r>
       <r>   139.1772     0.0000   560.0000 </r>
       <r>   139.2333     0.0000   560.0000 </r>
       <r>   139.2895     0.0000   560.0000 </r>
       <r>   139.3456     0.0000   560.0000 </r>
       <r>   139.4018     0.0000   560.0000 </r>
       <r>   139.4579     0.0000   560.0000 </r>
       <r>   139.5141     0.0000   560.0000 </r>
       <r>   139.5702     0.0000   560.0000 </r>
       <r>   139.6264     0.0000   560.0000 </r>
       <r>   139.6825     0.0000   560.0000 </r>
       <r>   139.7387     0.0000   560.0000 </r>
       <r>   139.7948     0.0000   560.0000 </r>
       <r>   139.8510     0.0000   560.0000 </r>
       <r>   139.9071     0.0000   560.0000 </r>
       <r>   139.9633     0.0000   560.0000 </r>
       <r>   140.0194     0.0000   560.0000 </r>
       <r>   140.0756     0.0000   560.0000 </r>
       <r>   140.1317     0.0000   560.0000 </r>
       <r>   140.1879     0.0000   560.0000 </r>
       <r>   140.2440     0.0000   560.0000 </r>
       <r>   140.3002     0.0000   560.0000 </r>
       <r>   140.3563     0.0000   560.0000 </r>
       <r>   140.4125     0.0000   560.0000 </r>
       <r>   140.4686     0.0000   560.0000 </r>
       <r>   140.5248     0.0000   560.0000 </r>
       <r>   140.5809     0.0000   560.0000 </r>
       <r>   140.6371     0.0000   560.0000 </r>
       <r>   140.6932     0.0000   560.0000 </r>
       <r>   140.7494     0.0000   560.0000 </r>
       <r>   140.8055     0.0000   560.0000 </r>
       <r>   140.8617     0.0000   560.0000 </r>
       <r>   140.9178     0.0000   560.0000 </r>
       <r>   140.9740     0.0000   560.0000 </r>
       <r>   141.0301     0.0000   560.0000 </r>
       <r>   141.0863     0.0000   560.0000 </r>
       <r>   141.1424     0.0000   560.0000 </r>
       <r>   141.1986     0.0000   560.0000 </r>
       <r>   141.2547     0.0000   560.0000 </r>
       <r>   141.3109     0.0000   560.0000 </r>
       <r>   141.3670     0.0000   560.0000 </r>
       <r>   141.4232     0.0000   560.0000 </r>
       <r>   141.4793     0.0000   560.0000 </r>
       <r>   141.5355     0.0000   560.0000 </r>
       <r>   141.5916     0.0000   560.0000 </r>
       <r>   141.6478     0.0000   560.0000 </r>
       <r>   141.7039     0.0000   560.0000 </r>
       <r>   141.7601     0.0000   560.0000 </r>
       <r>   141.8162     0.0000   560.0000 </r>
       <r>   141.8723     0.0000   560.0000 </r>
       <r>   141.9285     0.0000   560.0000 </r>
       <r>   141.9846     0.0000   560.0000 </r>
       <r>   142.0408     0.0000   560.0000 </r>
       <r>   142.0969     0.0000   560.0000 </r>
       <r>   142.1531     0.0000   560.0000 </r>
       <r>   142.2092     0.0000   560.0000 </r>
       <r>   142.2654     0.0000   560.0000 </r>
       <r>   142.3215     0.0000   560.0000 </r>
       <r>   142.3777     0.0000   560.0000 </r>
       <r>   142.4338     0.0000   560.0000 </r>
       <r>   142.4900     0.0000   560.0000 </r>
       <r>   142.5461     0.0000   560.0000 </r>
       <r>   142.6023     0.0000   560.0000 </r>
       <r>   142.6584     0.0000   560.0000 </r>
       <r>   142.7146     0.0000   560.0000 </r>
       <r>   142.7707     0.0000   560.0000 </r>
       <r>   142.8269     0.0000   560.0000 </r>
       <r>   142.8830     0.0000   560.0000 </r>
      </set>
     </set>
    </array>
   </total>
  </dos>
 </calculation>
 <structure name="finalpos" >
  <crystal>
   <varray name="basis" >
    <v>       4.72054000       0.00000000       0.00000000 </v>
    <v>       0.00000000       4.72541300       0.00000000 </v>
    <v>       0.00000000       0.00000000       9.20463400 </v>
   </varray>
   <i name="volume">    205.32317829 </i>
   <varray name="rec_basis" >
    <v>       0.21184017       0.00000000       0.00000000 </v>
    <v>       0.00000000       0.21162171       0.00000000 </v>
    <v>       0.00000000       0.00000000       0.10864093 </v>
   </varray>
  </crystal>
  <varray name="positions" >
   <v>       0.74409900       0.01374700       0.33761100 </v>
   <v>       0.74409900       0.01374700       0.66238900 </v>
   <v>       0.25590100       0.51374700       0.16238900 </v>
   <v>       0.25590100       0.51374700       0.83761100 </v>
   <v>       0.75008400       0.99352300       0.00000000 </v>
   <v>       0.24991600       0.49352300       0.50000000 </v>
   <v>       0.45215600       0.69554800       0.00000000 </v>
   <v>       0.54784400       0.19554800       0.50000000 </v>
   <v>       0.94414100       0.80005200       0.50000000 </v>
   <v>       0.94650300       0.80009200       0.83325900 </v>
   <v>       0.94650300       0.80009200       0.16674100 </v>
   <v>       0.05349700       0.30009200       0.33325900 </v>
   <v>       0.05349700       0.30009200       0.66674100 </v>
   <v>       0.05585900       0.30005200       0.00000000 </v>
   <v>       0.44566800       0.69160000       0.33239200 </v>
   <v>       0.44566800       0.69160000       0.66760800 </v>
   <v>       0.55433200       0.19160000       0.16760800 </v>
   <v>       0.55433200       0.19160000       0.83239200 </v>
  </varray>
 </structure>
</modeling>
