<?xml version="1.0" encoding="ISO-8859-1"?>
<modeling>
 <generator>
  <i name="program" type="string">vasp </i>
  <i name="version" type="string">5.4.4.18Apr17-6-g9f103f2a35  </i>
  <i name="subversion" type="string">(build Nov  5 2018 08:43:33) complex            parallel </i>
  <i name="platform" type="string">LinuxGNU </i>
  <i name="date" type="string">2018 12 22 </i>
  <i name="time" type="string">21:24:16 </i>
 </generator>
 <incar>
  <i type="string" name="PREC">accurate</i>
  <i type="int" name="NELM">   400</i>
  <i type="int" name="IBRION">     8</i>
  <i type="int" name="NFREE">     2</i>
  <i name="EDIFF">      0.00000100</i>
  <i type="int" name="NSW">     1</i>
  <i type="int" name="ISIF">     3</i>
  <i name="ENCUT">    850.00000000</i>
  <i name="POTIM">      0.05000000</i>
  <i type="int" name="NEDOS">  5000</i>
  <i type="int" name="ISMEAR">     0</i>
  <i name="SIGMA">      0.01000000</i>
  <i type="int" name="NWRITE">     3</i>
  <i type="logical" name="LWAVE"> F  </i>
  <i type="logical" name="LCHARG"> F  </i>
  <i type="int" name="LORBIT">    11</i>
  <i type="logical" name="LASPH"> T  </i>
  <v type="int" name="KPOINT_BSE">    -1     0     0     0</v>
  <i type="int" name="NELM">   400</i>
  <i type="string" name="GGA"> BO</i>
  <i name="PARAM1">      0.18333333</i>
  <i name="PARAM2">      0.22000000</i>
  <i type="logical" name="LUSE_VDW"> T  </i>
  <i name="AGGAC">      0.00000000</i>
  <i type="logical" name="LEPSILON"> T  </i>
  <i type="logical" name="LASPH"> T  </i>
 </incar>
 <structure name="primitive_cell" >
  <crystal>
   <varray name="basis" >
    <v>       1.56502200      -2.71069800       0.00000000 </v>
    <v>       1.56502200       2.71069800       0.00000000 </v>
    <v>       0.00000000       0.00000000       5.02125300 </v>
   </varray>
   <i name="volume">     42.60334334 </i>
   <varray name="rec_basis" >
    <v>       0.31948433      -0.18445434       0.00000000 </v>
    <v>       0.31948433       0.18445434      -0.00000000 </v>
    <v>      -0.00000000       0.00000000       0.19915348 </v>
   </varray>
  </crystal>
  <varray name="positions" >
   <v>       0.33333300      -0.33333300      -0.49933100 </v>
   <v>      -0.33333300       0.33333300      -0.38066900 </v>
   <v>       0.33333300      -0.33333300       0.11933100 </v>
   <v>      -0.33333300       0.33333300       0.00066900 </v>
  </varray>
 </structure>
 <varray name="primitive_index" >
  <v type="int" >        1 </v>
  <v type="int" >        4 </v>
  <v type="int" >        3 </v>
  <v type="int" >        2 </v>
 </varray>
 <kpoints>
  <generation param="Gamma">
   <v type="int" name="divisions">       9        9        5 </v>
   <v name="usershift">      0.00000000       0.00000000       0.00000000 </v>
   <v name="genvec1">      0.11111111      -0.00000000       0.00000000 </v>
   <v name="genvec2">     -0.00000000       0.11111111       0.00000000 </v>
   <v name="genvec3">      0.00000000       0.00000000       0.20000000 </v>
   <v name="shift">      0.00000000       0.00000000       0.00000000 </v>
  </generation>
  <varray name="kpointlist" >
   <v>       0.00000000       0.00000000       0.00000000 </v>
   <v>       0.11111111       0.00000000       0.00000000 </v>
   <v>       0.22222222       0.00000000       0.00000000 </v>
   <v>       0.33333333       0.00000000       0.00000000 </v>
   <v>       0.44444444       0.00000000       0.00000000 </v>
   <v>       0.11111111       0.11111111       0.00000000 </v>
   <v>       0.22222222       0.11111111       0.00000000 </v>
   <v>       0.33333333       0.11111111       0.00000000 </v>
   <v>       0.44444444       0.11111111       0.00000000 </v>
   <v>       0.22222222       0.22222222       0.00000000 </v>
   <v>       0.33333333       0.22222222       0.00000000 </v>
   <v>       0.33333333       0.33333333       0.00000000 </v>
   <v>       0.00000000       0.00000000       0.20000000 </v>
   <v>       0.11111111       0.00000000       0.20000000 </v>
   <v>       0.22222222       0.00000000       0.20000000 </v>
   <v>       0.33333333       0.00000000       0.20000000 </v>
   <v>       0.44444444       0.00000000       0.20000000 </v>
   <v>       0.11111111       0.11111111       0.20000000 </v>
   <v>       0.22222222       0.11111111       0.20000000 </v>
   <v>       0.33333333       0.11111111       0.20000000 </v>
   <v>       0.44444444       0.11111111       0.20000000 </v>
   <v>       0.22222222       0.22222222       0.20000000 </v>
   <v>       0.33333333       0.22222222       0.20000000 </v>
   <v>       0.33333333       0.33333333       0.20000000 </v>
   <v>       0.00000000       0.00000000       0.40000000 </v>
   <v>       0.11111111       0.00000000       0.40000000 </v>
   <v>       0.22222222       0.00000000       0.40000000 </v>
   <v>       0.33333333       0.00000000       0.40000000 </v>
   <v>       0.44444444       0.00000000       0.40000000 </v>
   <v>       0.11111111       0.11111111       0.40000000 </v>
   <v>       0.22222222       0.11111111       0.40000000 </v>
   <v>       0.33333333       0.11111111       0.40000000 </v>
   <v>       0.44444444       0.11111111       0.40000000 </v>
   <v>       0.22222222       0.22222222       0.40000000 </v>
   <v>       0.33333333       0.22222222       0.40000000 </v>
   <v>       0.33333333       0.33333333       0.40000000 </v>
  </varray>
  <varray name="weights" >
   <v>       0.00246914 </v>
   <v>       0.01481481 </v>
   <v>       0.01481481 </v>
   <v>       0.01481481 </v>
   <v>       0.01481481 </v>
   <v>       0.01481481 </v>
   <v>       0.02962963 </v>
   <v>       0.02962963 </v>
   <v>       0.01481481 </v>
   <v>       0.01481481 </v>
   <v>       0.02962963 </v>
   <v>       0.00493827 </v>
   <v>       0.00493827 </v>
   <v>       0.02962963 </v>
   <v>       0.02962963 </v>
   <v>       0.02962963 </v>
   <v>       0.02962963 </v>
   <v>       0.02962963 </v>
   <v>       0.05925926 </v>
   <v>       0.05925926 </v>
   <v>       0.02962963 </v>
   <v>       0.02962963 </v>
   <v>       0.05925926 </v>
   <v>       0.00987654 </v>
   <v>       0.00493827 </v>
   <v>       0.02962963 </v>
   <v>       0.02962963 </v>
   <v>       0.02962963 </v>
   <v>       0.02962963 </v>
   <v>       0.02962963 </v>
   <v>       0.05925926 </v>
   <v>       0.05925926 </v>
   <v>       0.02962963 </v>
   <v>       0.02962963 </v>
   <v>       0.05925926 </v>
   <v>       0.00987654 </v>
  </varray>
 </kpoints>
 <parameters>
  <separator name="general" >
   <i type="string" name="SYSTEM">unknown system</i>
   <i type="logical" name="LCOMPAT"> F  </i>
  </separator>
  <separator name="electronic" >
   <i type="string" name="PREC">accura</i>
   <i name="ENMAX">    850.00000000</i>
   <i name="ENAUG">    627.11200000</i>
   <i name="EDIFF">      0.00000100</i>
   <i type="int" name="IALGO">    38</i>
   <i type="int" name="IWAVPR">    11</i>
   <i type="int" name="NBANDS">    16</i>
   <i name="NELECT">     16.00000000</i>
   <i type="int" name="TURBO">     0</i>
   <i type="int" name="IRESTART">     0</i>
   <i type="int" name="NREBOOT">     0</i>
   <i type="int" name="NMIN">     0</i>
   <i name="EREF">      0.00000000</i>
   <separator name="electronic smearing" >
    <i type="int" name="ISMEAR">     0</i>
    <i name="SIGMA">      0.01000000</i>
    <i name="KSPACING">      0.50000000</i>
    <i type="logical" name="KGAMMA"> T  </i>
   </separator>
   <separator name="electronic projectors" >
    <i type="logical" name="LREAL"> F  </i>
    <v name="ROPT">      0.00000000      0.00000000</v>
    <i type="int" name="LMAXPAW">  -100</i>
    <i type="int" name="LMAXMIX">     2</i>
    <i type="logical" name="NLSPLINE"> F  </i>
   </separator>
   <separator name="electronic startup" >
    <i type="int" name="ISTART">     0</i>
    <i type="int" name="ICHARG">     2</i>
    <i type="int" name="INIWAV">     1</i>
   </separator>
   <separator name="electronic spin" >
    <i type="int" name="ISPIN">     1</i>
    <i type="logical" name="LNONCOLLINEAR"> F  </i>
    <v name="MAGMOM">      1.00000000      1.00000000      1.00000000      1.00000000</v>
    <i name="NUPDOWN">     -1.00000000</i>
    <i type="logical" name="LSORBIT"> F  </i>
    <v name="SAXIS">      0.00000000      0.00000000      1.00000000</v>
    <i type="logical" name="LSPIRAL"> F  </i>
    <v name="QSPIRAL">      0.00000000      0.00000000      0.00000000</v>
    <i type="logical" name="LZEROZ"> F  </i>
   </separator>
   <separator name="electronic exchange-correlation" >
    <i type="logical" name="LASPH"> T  </i>
    <i type="logical" name="LMETAGGA"> F  </i>
   </separator>
   <separator name="electronic convergence" >
    <i type="int" name="NELM">   400</i>
    <i type="int" name="NELMDL">    -5</i>
    <i type="int" name="NELMIN">     2</i>
    <i name="ENINI">    850.00000000</i>
    <separator name="electronic convergence detail" >
     <i type="logical" name="LDIAG"> T  </i>
     <i type="logical" name="LSUBROT"> F  </i>
     <i name="WEIMIN">      0.00100000</i>
     <i name="EBREAK">      0.00000002</i>
     <i name="DEPER">      0.30000000</i>
     <i type="int" name="NRMM">     4</i>
     <i name="TIME">      0.40000000</i>
    </separator>
   </separator>
   <separator name="electronic mixer" >
    <i name="AMIX">      0.40000000</i>
    <i name="BMIX">      1.00000000</i>
    <i name="AMIN">      0.10000000</i>
    <i name="AMIX_MAG">      1.60000000</i>
    <i name="BMIX_MAG">      1.00000000</i>
    <separator name="electronic mixer details" >
     <i type="int" name="IMIX">     4</i>
     <i type="logical" name="MIXFIRST"> F  </i>
     <i type="int" name="MAXMIX">   -45</i>
     <i name="WC">    100.00000000</i>
     <i type="int" name="INIMIX">     1</i>
     <i type="int" name="MIXPRE">     1</i>
     <i type="int" name="MREMOVE">     5</i>
    </separator>
   </separator>
   <separator name="electronic dipolcorrection" >
    <i type="logical" name="LDIPOL"> F  </i>
    <i type="logical" name="LMONO"> F  </i>
    <i type="int" name="IDIPOL">     0</i>
    <i name="EPSILON">      1.00000000</i>
    <v name="DIPOL">   -100.00000000   -100.00000000   -100.00000000</v>
    <i name="EFIELD">      0.00000000</i>
   </separator>
  </separator>
  <separator name="grids" >
   <i type="int" name="NGX">    30</i>
   <i type="int" name="NGY">    30</i>
   <i type="int" name="NGZ">    48</i>
   <i type="int" name="NGXF">    60</i>
   <i type="int" name="NGYF">    60</i>
   <i type="int" name="NGZF">    96</i>
   <i type="logical" name="ADDGRID"> F  </i>
  </separator>
  <separator name="ionic" >
   <i type="int" name="NSW">     1</i>
   <i type="int" name="IBRION">     8</i>
   <i type="int" name="MDALGO">     0</i>
   <i type="int" name="ISIF">     3</i>
   <i name="PSTRESS">      0.00000000</i>
   <i name="EDIFFG">      0.00001000</i>
   <i type="int" name="NFREE">     2</i>
   <i name="POTIM">      0.05000000</i>
   <i name="SMASS">     -3.00000000</i>
   <i name="SCALEE">      1.00000000</i>
  </separator>
  <separator name="ionic md" >
   <i name="TEBEG">      0.00010000</i>
   <i name="TEEND">      0.00010000</i>
   <i type="int" name="NBLOCK">     1</i>
   <i type="int" name="KBLOCK">     1</i>
   <i type="int" name="NPACO">   256</i>
   <i name="APACO">     16.00000000</i>
  </separator>
  <separator name="symmetry" >
   <i type="int" name="ISYM">     2</i>
   <i name="SYMPREC">      0.00001000</i>
  </separator>
  <separator name="dos" >
   <i type="int" name="LORBIT">    11</i>
   <v name="RWIGS">     -1.00000000     -1.00000000</v>
   <i type="int" name="NEDOS">  5000</i>
   <i name="EMIN">     10.00000000</i>
   <i name="EMAX">    -10.00000000</i>
   <i name="EFERMI">      0.00000000</i>
  </separator>
  <separator name="writing" >
   <i type="int" name="NWRITE">     3</i>
   <i type="logical" name="LWAVE"> F  </i>
   <i type="logical" name="LDOWNSAMPLE"> F  </i>
   <i type="logical" name="LCHARG"> F  </i>
   <i type="logical" name="LPARD"> F  </i>
   <i type="logical" name="LVTOT"> F  </i>
   <i type="logical" name="LVHAR"> F  </i>
   <i type="logical" name="LELF"> F  </i>
   <i type="logical" name="LOPTICS"> F  </i>
   <v name="STM">      0.00000000      0.00000000      0.00000000      0.00000000      0.00000000      0.00000000      0.00000000</v>
  </separator>
  <separator name="performance" >
   <i type="int" name="NPAR">    16</i>
   <i type="int" name="NSIM">     4</i>
   <i type="int" name="NBLK">    -1</i>
   <i type="logical" name="LPLANE"> T  </i>
   <i type="logical" name="LSCALAPACK"> T  </i>
   <i type="logical" name="LSCAAWARE"> F  </i>
   <i type="logical" name="LSCALU"> F  </i>
   <i type="logical" name="LASYNC"> F  </i>
   <i type="logical" name="LORBITALREAL"> F  </i>
  </separator>
  <separator name="miscellaneous" >
   <i type="int" name="IDIOT">     3</i>
   <i type="int" name="ISPECIAL">     0</i>
   <i type="logical" name="LMUSIC"> F  </i>
   <v name="POMASS">     26.98100000     14.00100000</v>
   <v name="DARWINR">      0.00000000      0.00000000</v>
   <v name="DARWINV">      1.00000000      1.00000000</v>
   <i type="logical" name="LCORR"> T  </i>
  </separator>
  <i type="logical" name="GGA_COMPAT"> T  </i>
  <i type="logical" name="LBERRY"> F  </i>
  <i type="int" name="ICORELEVEL">     0</i>
  <i type="logical" name="LDAU"> F  </i>
  <i type="int" name="I_CONSTRAINED_M">     0</i>
  <separator name="electronic exchange-correlation" >
   <i type="string" name="GGA">BO</i>
   <i type="int" name="VOSKOWN">     0</i>
   <i type="logical" name="LHFCALC"> F  </i>
   <i type="string" name="PRECFOCK"></i>
   <i type="logical" name="LSYMGRAD"> F  </i>
   <i type="logical" name="LHFONE"> F  </i>
   <i type="logical" name="LRHFCALC"> F  </i>
   <i type="logical" name="LTHOMAS"> F  </i>
   <i type="logical" name="LMODELHF"> F  </i>
   <i name="ENCUT4O">     -1.00000000</i>
   <i type="int" name="EXXOEP">     0</i>
   <i type="int" name="FOURORBIT">     0</i>
   <i name="AEXX">      0.00000000</i>
   <i name="HFALPHA">      0.00000000</i>
   <i name="MCALPHA">      0.00000000</i>
   <i name="ALDAX">      1.00000000</i>
   <i name="AGGAX">      1.00000000</i>
   <i name="ALDAC">      1.00000000</i>
   <i name="AGGAC">      0.00000000</i>
   <i type="int" name="NKREDX">     1</i>
   <i type="int" name="NKREDY">     1</i>
   <i type="int" name="NKREDZ">     1</i>
   <i type="logical" name="SHIFTRED"> F  </i>
   <i type="logical" name="ODDONLY"> F  </i>
   <i type="logical" name="EVENONLY"> F  </i>
   <i type="int" name="LMAXFOCK">     0</i>
   <i type="int" name="NMAXFOCKAE">     0</i>
   <i type="logical" name="LFOCKAEDFT"> F  </i>
   <i name="HFSCREEN">      0.00000000</i>
   <i name="HFSCREENC">      0.00000000</i>
   <i type="int" name="NBANDSGWLOW">     0</i>
  </separator>
  <separator name="vdW DFT" >
   <i type="logical" name="LUSE_VDW"> T  </i>
   <i name="Zab_VDW">     -0.84910000</i>
   <i name="PARAM1">      0.18333333</i>
   <i name="PARAM2">      0.22000000</i>
   <i name="PARAM3">      0.00000000</i>
  </separator>
  <separator name="model GW" >
   <i type="int" name="MODEL_GW">     0</i>
   <i name="MODEL_EPS0">      6.39050150</i>
   <i name="MODEL_ALPHA">      1.00000000</i>
  </separator>
  <separator name="linear response parameters" >
   <i type="logical" name="LEPSILON"> T  </i>
   <i type="logical" name="LRPA"> F  </i>
   <i type="logical" name="LNABLA"> F  </i>
   <i type="logical" name="LVEL"> F  </i>
   <i type="int" name="KINTER">     0</i>
   <i name="CSHIFT">      0.10000000</i>
   <i name="OMEGAMAX">     -1.00000000</i>
   <i name="DEG_THRESHOLD">      0.00200000</i>
   <i name="RTIME">     -0.10000000</i>
   <i name="WPLASMAI">      0.00000000</i>
   <v name="DFIELD">      0.00000000      0.00000000      0.00000000</v>
   <v name="WPLASMA">      0.00000000      0.00000000      0.00000000      0.00000000      0.00000000      0.00000000      0.00000000      0.00000000      0.00000000</v>
  </separator>
  <separator name="orbital magnetization" >
   <i type="logical" name="NUCIND"> F  </i>
   <v name="MAGPOS">      0.00000000      0.00000000      0.00000000</v>
   <i type="logical" name="LNICSALL"> T  </i>
   <i type="logical" name="ORBITALMAG"> F  </i>
   <i type="logical" name="LMAGBLOCH"> F  </i>
   <i type="logical" name="LCHIMAG"> F  </i>
   <i type="logical" name="LGAUGE"> T  </i>
   <i type="int" name="MAGATOM">     0</i>
   <v name="MAGDIPOL">      0.00000000      0.00000000      0.00000000</v>
   <v name="AVECCONST">      0.00000000      0.00000000      0.00000000</v>
  </separator>
  <separator name="response functions" >
   <i type="logical" name="LADDER"> F  </i>
   <i type="logical" name="LRPAFORCE"> F  </i>
   <i type="logical" name="LFXC"> F  </i>
   <i type="logical" name="LHARTREE"> T  </i>
   <i type="int" name="IBSE">     0</i>
   <v type="int" name="KPOINT">    -1     0     0     0</v>
   <i type="logical" name="LTCTE"> F  </i>
   <i type="logical" name="LTETE"> F  </i>
   <i type="logical" name="LTRIPLET"> F  </i>
   <i type="logical" name="LFXCEPS"> F  </i>
   <i type="logical" name="LFXHEG"> F  </i>
   <i type="int" name="NATURALO">     2</i>
   <i type="logical" name="L2ORDER"> F  </i>
   <i type="logical" name="LMP2LT"> F  </i>
   <i type="logical" name="LUSEW"> F  </i>
   <i name="ENCUTGW">     -2.00000000</i>
   <i name="ENCUTGWSOFT">     -2.00000000</i>
   <i name="ENCUTLF">     -1.00000000</i>
   <i type="int" name="LMAXMP2">    -1</i>
   <i name="SCISSOR">      0.00000000</i>
   <i type="int" name="NOMEGA">     0</i>
   <i type="int" name="NOMEGAR">     0</i>
   <i type="int" name="NBANDSGW">    -1</i>
   <i type="int" name="NBANDSO">    -1</i>
   <i type="int" name="NBANDSV">    -1</i>
   <i type="int" name="NELM">   400</i>
   <i type="int" name="NELMHF">     1</i>
   <i type="int" name="DIM">     3</i>
   <i type="int" name="ANTIRES">     0</i>
   <i name="OMEGAMAX">    -30.00000000</i>
   <i name="OMEGAMIN">    -30.00000000</i>
   <i name="OMEGATL">   -200.00000000</i>
   <i type="int" name="OMEGAGRID">   140</i>
   <i name="CSHIFT">     -0.10000000</i>
   <i type="logical" name="SELFENERGY"> F  </i>
   <i type="logical" name="LSPECTRAL"> F  </i>
   <i type="logical" name="LSPECTRALGW"> F  </i>
   <i type="logical" name="LSINGLES"> F  </i>
   <i type="logical" name="LFERMIGW"> F  </i>
   <i type="logical" name="ODDONLYGW"> F  </i>
   <i type="logical" name="EVENONLYGW"> F  </i>
   <i type="int" name="NKREDLFX">     1</i>
   <i type="int" name="NKREDLFY">     1</i>
   <i type="int" name="NKREDLFZ">     1</i>
   <i type="int" name="MAXMEM">  2800</i>
   <i type="int" name="TELESCOPE">     0</i>
   <i type="int" name="TAUPAR">     1</i>
   <i type="int" name="OMEGAPAR">    -1</i>
   <i name="LAMBDA">      1.00000000</i>
  </separator>
  <separator name="External order field" >
   <i name="OFIELD_KAPPA">      0.00000000</i>
   <v name="OFIELD_K">      0.00000000      0.00000000      0.00000000</v>
   <i name="OFIELD_Q6_NEAR">      0.00000000</i>
   <i name="OFIELD_Q6_FAR">      0.00000000</i>
   <i name="OFIELD_A">      0.00000000</i>
  </separator>
 </parameters>
 <atominfo>
  <atoms>       4 </atoms>
  <types>       2 </types>
  <array name="atoms" >
   <dimension dim="1">ion</dimension>
   <field type="string">element</field>
   <field type="int">atomtype</field>
   <set>
    <rc><c>Al</c><c>   1</c></rc>
    <rc><c>Al</c><c>   1</c></rc>
    <rc><c>N </c><c>   2</c></rc>
    <rc><c>N </c><c>   2</c></rc>
   </set>
  </array>
  <array name="atomtypes" >
   <dimension dim="1">type</dimension>
   <field type="int">atomspertype</field>
   <field type="string">element</field>
   <field>mass</field>
   <field>valence</field>
   <field type="string">pseudopotential</field>
   <set>
    <rc><c>   2</c><c>Al</c><c>     26.98100000</c><c>      3.00000000</c><c>  PAW_PBE Al 04Jan2001                  </c></rc>
    <rc><c>   2</c><c>N </c><c>     14.00100000</c><c>      5.00000000</c><c>  PAW_PBE N 08Apr2002                   </c></rc>
   </set>
  </array>
 </atominfo>
 <structure name="initialpos" >
  <crystal>
   <varray name="basis" >
    <v>       1.56502200      -2.71069800       0.00000000 </v>
    <v>       1.56502200       2.71069800       0.00000000 </v>
    <v>       0.00000000       0.00000000       5.02125300 </v>
   </varray>
   <i name="volume">     42.60334334 </i>
   <varray name="rec_basis" >
    <v>       0.31948433      -0.18445434       0.00000000 </v>
    <v>       0.31948433       0.18445434      -0.00000000 </v>
    <v>      -0.00000000       0.00000000       0.19915348 </v>
   </varray>
  </crystal>
  <varray name="positions" >
   <v>       0.33333300       0.66666700       0.50066900 </v>
   <v>       0.66666700       0.33333300       0.00066900 </v>
   <v>       0.33333300       0.66666700       0.11933100 </v>
   <v>       0.66666700       0.33333300       0.61933100 </v>
  </varray>
 </structure>
 <calculation>
  <scstep>
   <time name="dav">    1.87    1.88</time>
   <time name="total">   14.62   14.68</time>
   <energy>
    <i name="alphaZ">     15.34496861 </i>
    <i name="ewald">   -587.95466205 </i>
    <i name="hartreedc">   -120.28341280 </i>
    <i name="XCdc">    -14.30735919 </i>
    <i name="pawpsdc">    545.87649826 </i>
    <i name="pawaedc">   -480.71821733 </i>
    <i name="eentropy">     -0.00006424 </i>
    <i name="bandstr">     56.29668213 </i>
    <i name="atom">    642.62553060 </i>
    <i name="e_fr_energy">     56.87996398 </i>
    <i name="e_wo_entrp">     56.88002823 </i>
    <i name="e_0_energy">     56.87999611 </i>
   </energy>
  </scstep>
  <scstep>
   <time name="dav">    2.58    2.62</time>
   <time name="total">    2.58    2.62</time>
   <energy>
    <i name="e_fr_energy">    -27.92651825 </i>
    <i name="e_wo_entrp">    -27.92651825 </i>
    <i name="e_0_energy">    -27.92651825 </i>
   </energy>
  </scstep>
  <scstep>
   <time name="dav">    2.35    2.36</time>
   <time name="total">    2.36    2.37</time>
   <energy>
    <i name="e_fr_energy">    -30.13250059 </i>
    <i name="e_wo_entrp">    -30.13250059 </i>
    <i name="e_0_energy">    -30.13250059 </i>
   </energy>
  </scstep>
  <scstep>
   <time name="dav">    3.22    4.40</time>
   <time name="total">    3.22    4.40</time>
   <energy>
    <i name="e_fr_energy">    -30.13940998 </i>
    <i name="e_wo_entrp">    -30.13940998 </i>
    <i name="e_0_energy">    -30.13940998 </i>
   </energy>
  </scstep>
  <scstep>
   <time name="dav">    2.41    2.42</time>
   <time name="total">    2.62    2.63</time>
   <energy>
    <i name="e_fr_energy">    -30.13941258 </i>
    <i name="e_wo_entrp">    -30.13941258 </i>
    <i name="e_0_energy">    -30.13941258 </i>
   </energy>
  </scstep>
  <scstep>
   <time name="dav">    2.38    2.39</time>
   <time name="total">   12.57   12.61</time>
   <energy>
    <i name="e_fr_energy">    -24.88563404 </i>
    <i name="e_wo_entrp">    -24.88563404 </i>
    <i name="e_0_energy">    -24.88563404 </i>
   </energy>
  </scstep>
  <scstep>
   <time name="dav">    2.09    2.10</time>
   <time name="total">   12.26   12.30</time>
   <energy>
    <i name="e_fr_energy">    -24.87590721 </i>
    <i name="e_wo_entrp">    -24.87590721 </i>
    <i name="e_0_energy">    -24.87590721 </i>
   </energy>
  </scstep>
  <scstep>
   <time name="dav">    2.70    2.71</time>
   <time name="total">   12.89   12.94</time>
   <energy>
    <i name="e_fr_energy">    -24.86375696 </i>
    <i name="e_wo_entrp">    -24.86375696 </i>
    <i name="e_0_energy">    -24.86375696 </i>
   </energy>
  </scstep>
  <scstep>
   <time name="dav">    2.87    2.88</time>
   <time name="total">   12.97   13.02</time>
   <energy>
    <i name="e_fr_energy">    -24.86319820 </i>
    <i name="e_wo_entrp">    -24.86319820 </i>
    <i name="e_0_energy">    -24.86319820 </i>
   </energy>
  </scstep>
  <scstep>
   <time name="dav">    1.93    1.94</time>
   <time name="total">   12.14   12.17</time>
   <energy>
    <i name="e_fr_energy">    -24.86360245 </i>
    <i name="e_wo_entrp">    -24.86360245 </i>
    <i name="e_0_energy">    -24.86360245 </i>
   </energy>
  </scstep>
  <scstep>
   <time name="dav">    3.14    3.16</time>
   <time name="total">   13.36   13.40</time>
   <energy>
    <i name="e_fr_energy">    -24.86360037 </i>
    <i name="e_wo_entrp">    -24.86360037 </i>
    <i name="e_0_energy">    -24.86360037 </i>
   </energy>
  </scstep>
  <scstep>
   <time name="dav">    2.02    2.03</time>
   <time name="total">   12.19   12.24</time>
   <energy>
    <i name="e_fr_energy">    -24.86360179 </i>
    <i name="e_wo_entrp">    -24.86360179 </i>
    <i name="e_0_energy">    -24.86360179 </i>
   </energy>
  </scstep>
  <scstep>
   <time name="dav">    1.60    1.60</time>
   <time name="total">   11.55   11.66</time>
   <energy>
    <i name="alphaZ">     15.34496861 </i>
    <i name="ewald">   -587.95466205 </i>
    <i name="hartreedc">   -159.08312133 </i>
    <i name="XCdc">    -11.08054666 </i>
    <i name="pawpsdc">   1272.03298698 </i>
    <i name="pawaedc">  -1207.51681768 </i>
    <i name="eentropy">     -0.00000000 </i>
    <i name="bandstr">     10.76805975 </i>
    <i name="atom">    642.62553060 </i>
    <i name="e_fr_energy">    -24.86360178 </i>
    <i name="e_wo_entrp">    -24.86360178 </i>
    <i name="e_0_energy">    -24.86360178 </i>
   </energy>
  </scstep>
  <structure>
   <crystal>
    <varray name="basis" >
     <v>       1.56502200      -2.71069800       0.00000000 </v>
     <v>       1.56502200       2.71069800       0.00000000 </v>
     <v>       0.00000000       0.00000000       5.02125300 </v>
    </varray>
    <i name="volume">     42.60334334 </i>
    <varray name="rec_basis" >
     <v>       0.31948433      -0.18445434       0.00000000 </v>
     <v>       0.31948433       0.18445434      -0.00000000 </v>
     <v>      -0.00000000       0.00000000       0.19915348 </v>
    </varray>
   </crystal>
   <varray name="positions" >
    <v>       0.33333300       0.66666700       0.50066900 </v>
    <v>       0.66666700       0.33333300       0.00066900 </v>
    <v>       0.33333300       0.66666700       0.11933100 </v>
    <v>       0.66666700       0.33333300       0.61933100 </v>
   </varray>
  </structure>
  <varray name="forces" >
   <v>      -0.00000000      -0.00000000      -0.00740196 </v>
   <v>      -0.00000000      -0.00000000      -0.00740196 </v>
   <v>      -0.00000000       0.00000000       0.00740196 </v>
   <v>       0.00000000      -0.00000000       0.00740196 </v>
  </varray>
  <varray name="stress" >
   <v>     -14.79381147      -0.00000000       0.00000000 </v>
   <v>       0.00000000     -14.79381562       0.00000000 </v>
   <v>       0.00000000       0.00000000     -11.98775788 </v>
  </varray>
  <energy>
   <i name="e_fr_energy">    -24.86360178 </i>
   <i name="e_wo_entrp">    -24.86360178 </i>
   <i name="e_0_energy">     -0.00000000 </i>
  </energy>
  <scstep>
   <time name="total">    2.94    2.94</time>
   <energy>
    <i name="e_fr_energy">    -54.18424401 </i>
    <i name="e_wo_entrp">    -54.18424401 </i>
    <i name="e_0_energy">    -54.18424401 </i>
   </energy>
  </scstep>
  <scstep>
   <time name="total">    2.33    2.59</time>
   <energy>
    <i name="e_fr_energy">    -53.38012942 </i>
    <i name="e_wo_entrp">    -53.38012942 </i>
    <i name="e_0_energy">    -53.38012942 </i>
   </energy>
  </scstep>
  <scstep>
   <time name="total">    2.62    2.82</time>
   <energy>
    <i name="e_fr_energy">    -53.43790926 </i>
    <i name="e_wo_entrp">    -53.43790926 </i>
    <i name="e_0_energy">    -53.43790926 </i>
   </energy>
  </scstep>
  <scstep>
   <time name="total">    2.40    2.68</time>
   <energy>
    <i name="e_fr_energy">    -53.43827333 </i>
    <i name="e_wo_entrp">    -53.43827333 </i>
    <i name="e_0_energy">    -53.43827333 </i>
   </energy>
  </scstep>
  <scstep>
   <time name="total">    2.47    2.89</time>
   <energy>
    <i name="e_fr_energy">    -53.43824888 </i>
    <i name="e_wo_entrp">    -53.43824888 </i>
    <i name="e_0_energy">    -53.43824888 </i>
   </energy>
  </scstep>
  <scstep>
   <time name="total">    2.39    4.40</time>
   <energy>
    <i name="e_fr_energy">    -53.43823716 </i>
    <i name="e_wo_entrp">    -53.43823716 </i>
    <i name="e_0_energy">    -53.43823716 </i>
   </energy>
  </scstep>
  <scstep>
   <time name="total">    2.35    2.49</time>
   <energy>
    <i name="e_fr_energy">    -53.43823612 </i>
    <i name="e_wo_entrp">    -53.43823612 </i>
    <i name="e_0_energy">    -53.43823612 </i>
   </energy>
  </scstep>
  <scstep>
   <time name="total">    2.38    2.43</time>
   <energy>
    <i name="e_fr_energy">    -53.43823581 </i>
    <i name="e_wo_entrp">    -53.43823581 </i>
    <i name="e_0_energy">    -53.43823581 </i>
   </energy>
  </scstep>
  <scstep>
   <time name="total">    2.83    2.84</time>
   <energy>
    <i name="e_fr_energy">    -70.67286943 </i>
    <i name="e_wo_entrp">    -70.67286943 </i>
    <i name="e_0_energy">    -70.67286943 </i>
   </energy>
  </scstep>
  <scstep>
   <time name="total">    2.28    2.53</time>
   <energy>
    <i name="e_fr_energy">    -63.19363337 </i>
    <i name="e_wo_entrp">    -63.19363337 </i>
    <i name="e_0_energy">    -63.19363337 </i>
   </energy>
  </scstep>
  <scstep>
   <time name="total">    2.80    2.87</time>
   <energy>
    <i name="e_fr_energy">    -63.23059237 </i>
    <i name="e_wo_entrp">    -63.23059237 </i>
    <i name="e_0_energy">    -63.23059237 </i>
   </energy>
  </scstep>
  <scstep>
   <time name="total">    2.31    2.39</time>
   <energy>
    <i name="e_fr_energy">    -63.22869299 </i>
    <i name="e_wo_entrp">    -63.22869299 </i>
    <i name="e_0_energy">    -63.22869299 </i>
   </energy>
  </scstep>
  <scstep>
   <time name="total">    2.44    2.99</time>
   <energy>
    <i name="e_fr_energy">    -63.22826869 </i>
    <i name="e_wo_entrp">    -63.22826869 </i>
    <i name="e_0_energy">    -63.22826869 </i>
   </energy>
  </scstep>
  <scstep>
   <time name="total">    2.42    2.52</time>
   <energy>
    <i name="e_fr_energy">    -63.22820376 </i>
    <i name="e_wo_entrp">    -63.22820376 </i>
    <i name="e_0_energy">    -63.22820376 </i>
   </energy>
  </scstep>
  <scstep>
   <time name="total">    2.42    2.52</time>
   <energy>
    <i name="e_fr_energy">    -63.22819588 </i>
    <i name="e_wo_entrp">    -63.22819588 </i>
    <i name="e_0_energy">    -63.22819588 </i>
   </energy>
  </scstep>
  <scstep>
   <time name="total">    2.51    2.87</time>
   <energy>
    <i name="e_fr_energy">    -63.22819450 </i>
    <i name="e_wo_entrp">    -63.22819450 </i>
    <i name="e_0_energy">    -63.22819450 </i>
   </energy>
  </scstep>
  <scstep>
   <time name="total">    2.38    2.58</time>
   <energy>
    <i name="e_fr_energy">    -63.22819451 </i>
    <i name="e_wo_entrp">    -63.22819451 </i>
    <i name="e_0_energy">    -63.22819451 </i>
   </energy>
  </scstep>
  <scstep>
   <time name="total">    2.92    2.94</time>
   <energy>
    <i name="e_fr_energy">    -64.24449855 </i>
    <i name="e_wo_entrp">    -64.24449855 </i>
    <i name="e_0_energy">    -64.24449855 </i>
   </energy>
  </scstep>
  <scstep>
   <time name="total">    2.16    2.96</time>
   <energy>
    <i name="e_fr_energy">    -58.25523664 </i>
    <i name="e_wo_entrp">    -58.25523664 </i>
    <i name="e_0_energy">    -58.25523664 </i>
   </energy>
  </scstep>
  <scstep>
   <time name="total">    2.60    2.65</time>
   <energy>
    <i name="e_fr_energy">    -58.31161416 </i>
    <i name="e_wo_entrp">    -58.31161416 </i>
    <i name="e_0_energy">    -58.31161416 </i>
   </energy>
  </scstep>
  <scstep>
   <time name="total">    2.15    2.25</time>
   <energy>
    <i name="e_fr_energy">    -58.31256224 </i>
    <i name="e_wo_entrp">    -58.31256224 </i>
    <i name="e_0_energy">    -58.31256224 </i>
   </energy>
  </scstep>
  <scstep>
   <time name="total">    2.20    2.70</time>
   <energy>
    <i name="e_fr_energy">    -58.31258346 </i>
    <i name="e_wo_entrp">    -58.31258346 </i>
    <i name="e_0_energy">    -58.31258346 </i>
   </energy>
  </scstep>
  <scstep>
   <time name="total">    2.10    2.40</time>
   <energy>
    <i name="e_fr_energy">    -58.31258332 </i>
    <i name="e_wo_entrp">    -58.31258332 </i>
    <i name="e_0_energy">    -58.31258332 </i>
   </energy>
  </scstep>
  <scstep>
   <time name="total">   23.04   23.10</time>
   <energy>
    <i name="e_fr_energy">     -0.33651879 </i>
    <i name="e_wo_entrp">     -0.33651879 </i>
    <i name="e_0_energy">     -0.33651879 </i>
   </energy>
  </scstep>
  <scstep>
   <time name="total">   22.79   22.84</time>
   <energy>
    <i name="e_fr_energy">     -0.34614201 </i>
    <i name="e_wo_entrp">     -0.34614201 </i>
    <i name="e_0_energy">     -0.34614201 </i>
   </energy>
  </scstep>
  <scstep>
   <time name="total">   23.03   23.07</time>
   <energy>
    <i name="e_fr_energy">     -0.34619087 </i>
    <i name="e_wo_entrp">     -0.34619087 </i>
    <i name="e_0_energy">     -0.34619087 </i>
   </energy>
  </scstep>
  <scstep>
   <time name="total">   22.95   23.00</time>
   <energy>
    <i name="e_fr_energy">     -0.34619167 </i>
    <i name="e_wo_entrp">     -0.34619167 </i>
    <i name="e_0_energy">     -0.34619167 </i>
   </energy>
  </scstep>
  <scstep>
   <time name="total">   23.18   23.23</time>
   <energy>
    <i name="e_fr_energy">     -0.46817196 </i>
    <i name="e_wo_entrp">     -0.46817196 </i>
    <i name="e_0_energy">     -0.46817196 </i>
   </energy>
  </scstep>
  <scstep>
   <time name="total">   22.94   22.99</time>
   <energy>
    <i name="e_fr_energy">     -0.48000978 </i>
    <i name="e_wo_entrp">     -0.48000978 </i>
    <i name="e_0_energy">     -0.48000978 </i>
   </energy>
  </scstep>
  <scstep>
   <time name="total">   23.01   23.07</time>
   <energy>
    <i name="e_fr_energy">     -0.48008293 </i>
    <i name="e_wo_entrp">     -0.48008293 </i>
    <i name="e_0_energy">     -0.48008293 </i>
   </energy>
  </scstep>
  <scstep>
   <time name="total">   23.16   23.23</time>
   <energy>
    <i name="e_fr_energy">     -0.48008420 </i>
    <i name="e_wo_entrp">     -0.48008420 </i>
    <i name="e_0_energy">     -0.48008420 </i>
   </energy>
  </scstep>
  <scstep>
   <time name="total">   22.95   23.00</time>
   <energy>
    <i name="e_fr_energy">     -0.48008423 </i>
    <i name="e_wo_entrp">     -0.48008423 </i>
    <i name="e_0_energy">     -0.48008423 </i>
   </energy>
  </scstep>
  <scstep>
   <time name="total">   22.97   23.02</time>
   <energy>
    <i name="e_fr_energy">     -0.42276321 </i>
    <i name="e_wo_entrp">     -0.42276321 </i>
    <i name="e_0_energy">     -0.42276321 </i>
   </energy>
  </scstep>
  <scstep>
   <time name="total">   22.42   22.46</time>
   <energy>
    <i name="e_fr_energy">     -0.43443632 </i>
    <i name="e_wo_entrp">     -0.43443632 </i>
    <i name="e_0_energy">     -0.43443632 </i>
   </energy>
  </scstep>
  <scstep>
   <time name="total">   22.35   22.39</time>
   <energy>
    <i name="e_fr_energy">     -0.43451699 </i>
    <i name="e_wo_entrp">     -0.43451699 </i>
    <i name="e_0_energy">     -0.43451699 </i>
   </energy>
  </scstep>
  <scstep>
   <time name="total">   22.45   22.49</time>
   <energy>
    <i name="e_fr_energy">     -0.43451816 </i>
    <i name="e_wo_entrp">     -0.43451816 </i>
    <i name="e_0_energy">     -0.43451816 </i>
   </energy>
  </scstep>
  <scstep>
   <time name="total">   22.49   22.53</time>
   <energy>
    <i name="e_fr_energy">     -0.43451819 </i>
    <i name="e_wo_entrp">     -0.43451819 </i>
    <i name="e_0_energy">     -0.43451819 </i>
   </energy>
  </scstep>
  <varray name="epsilon_rpa" >
   <v>       4.50951870       0.00000000       0.00000000 </v>
   <v>       0.00000000       4.50951997      -0.00000000 </v>
   <v>       0.00000000      -0.00000000       4.69113895 </v>
  </varray>
  <kpoints>
   <generation param="Gamma">
    <v type="int" name="divisions">       9        9        5 </v>
    <v name="usershift">      0.00000000       0.00000000       0.00000000 </v>
    <v name="genvec1">      0.11111111      -0.00000000       0.00000000 </v>
    <v name="genvec2">     -0.00000000       0.11111111       0.00000000 </v>
    <v name="genvec3">      0.00000000       0.00000000       0.20000000 </v>
    <v name="shift">      0.00000000       0.00000000       0.00000000 </v>
   </generation>
   <varray name="kpointlist" >
    <v>       0.00000000       0.00000000       0.00000000 </v>
    <v>       0.11111111       0.00000000       0.00000000 </v>
    <v>       0.22222222       0.00000000       0.00000000 </v>
    <v>       0.33333333       0.00000000       0.00000000 </v>
    <v>       0.44444444       0.00000000       0.00000000 </v>
    <v>       0.11111111       0.11111111       0.00000000 </v>
    <v>       0.22222222       0.11111111       0.00000000 </v>
    <v>       0.33333333       0.11111111       0.00000000 </v>
    <v>       0.44444444       0.11111111       0.00000000 </v>
    <v>      -0.44444444       0.11111111       0.00000000 </v>
    <v>      -0.33333333       0.11111111       0.00000000 </v>
    <v>      -0.22222222       0.11111111       0.00000000 </v>
    <v>      -0.11111111       0.11111111       0.00000000 </v>
    <v>       0.22222222       0.22222222       0.00000000 </v>
    <v>       0.33333333       0.22222222       0.00000000 </v>
    <v>       0.44444444       0.22222222       0.00000000 </v>
    <v>      -0.44444444       0.22222222       0.00000000 </v>
    <v>      -0.33333333       0.22222222       0.00000000 </v>
    <v>      -0.22222222       0.22222222       0.00000000 </v>
    <v>       0.33333333       0.33333333       0.00000000 </v>
    <v>       0.44444444       0.33333333       0.00000000 </v>
    <v>      -0.44444444       0.33333333       0.00000000 </v>
    <v>      -0.33333333       0.33333333       0.00000000 </v>
    <v>       0.44444444       0.44444444       0.00000000 </v>
    <v>      -0.44444444       0.44444444       0.00000000 </v>
    <v>       0.00000000       0.00000000       0.20000000 </v>
    <v>       0.11111111       0.00000000       0.20000000 </v>
    <v>       0.22222222       0.00000000       0.20000000 </v>
    <v>       0.33333333       0.00000000       0.20000000 </v>
    <v>       0.44444444       0.00000000       0.20000000 </v>
    <v>      -0.44444444       0.00000000       0.20000000 </v>
    <v>      -0.33333333       0.00000000       0.20000000 </v>
    <v>      -0.22222222       0.00000000       0.20000000 </v>
    <v>      -0.11111111       0.00000000       0.20000000 </v>
    <v>       0.11111111       0.11111111       0.20000000 </v>
    <v>       0.22222222       0.11111111       0.20000000 </v>
    <v>       0.33333333       0.11111111       0.20000000 </v>
    <v>       0.44444444       0.11111111       0.20000000 </v>
    <v>      -0.44444444       0.11111111       0.20000000 </v>
    <v>      -0.33333333       0.11111111       0.20000000 </v>
    <v>      -0.22222222       0.11111111       0.20000000 </v>
    <v>      -0.11111111       0.11111111       0.20000000 </v>
    <v>       0.22222222       0.22222222       0.20000000 </v>
    <v>       0.33333333       0.22222222       0.20000000 </v>
    <v>       0.44444444       0.22222222       0.20000000 </v>
    <v>      -0.44444444       0.22222222       0.20000000 </v>
    <v>      -0.33333333       0.22222222       0.20000000 </v>
    <v>      -0.22222222       0.22222222       0.20000000 </v>
    <v>      -0.11111111       0.22222222       0.20000000 </v>
    <v>       0.33333333       0.33333333       0.20000000 </v>
    <v>       0.44444444       0.33333333       0.20000000 </v>
    <v>      -0.44444444       0.33333333       0.20000000 </v>
    <v>      -0.33333333       0.33333333       0.20000000 </v>
    <v>      -0.22222222       0.33333333       0.20000000 </v>
    <v>      -0.11111111       0.33333333       0.20000000 </v>
    <v>       0.44444444       0.44444444       0.20000000 </v>
    <v>      -0.44444444       0.44444444       0.20000000 </v>
    <v>      -0.33333333       0.44444444       0.20000000 </v>
    <v>      -0.22222222       0.44444444       0.20000000 </v>
    <v>      -0.11111111       0.44444444       0.20000000 </v>
    <v>      -0.44444444      -0.44444444       0.20000000 </v>
    <v>      -0.33333333      -0.44444444       0.20000000 </v>
    <v>      -0.22222222      -0.44444444       0.20000000 </v>
    <v>      -0.11111111      -0.44444444       0.20000000 </v>
    <v>      -0.33333333      -0.33333333       0.20000000 </v>
    <v>      -0.22222222      -0.33333333       0.20000000 </v>
    <v>      -0.11111111      -0.33333333       0.20000000 </v>
    <v>      -0.22222222      -0.22222222       0.20000000 </v>
    <v>      -0.11111111      -0.22222222       0.20000000 </v>
    <v>      -0.11111111      -0.11111111       0.20000000 </v>
    <v>       0.00000000       0.00000000       0.40000000 </v>
    <v>       0.11111111       0.00000000       0.40000000 </v>
    <v>       0.22222222       0.00000000       0.40000000 </v>
    <v>       0.33333333       0.00000000       0.40000000 </v>
    <v>       0.44444444       0.00000000       0.40000000 </v>
    <v>      -0.44444444       0.00000000       0.40000000 </v>
    <v>      -0.33333333       0.00000000       0.40000000 </v>
    <v>      -0.22222222       0.00000000       0.40000000 </v>
    <v>      -0.11111111       0.00000000       0.40000000 </v>
    <v>       0.11111111       0.11111111       0.40000000 </v>
    <v>       0.22222222       0.11111111       0.40000000 </v>
    <v>       0.33333333       0.11111111       0.40000000 </v>
    <v>       0.44444444       0.11111111       0.40000000 </v>
    <v>      -0.44444444       0.11111111       0.40000000 </v>
    <v>      -0.33333333       0.11111111       0.40000000 </v>
    <v>      -0.22222222       0.11111111       0.40000000 </v>
    <v>      -0.11111111       0.11111111       0.40000000 </v>
    <v>       0.22222222       0.22222222       0.40000000 </v>
    <v>       0.33333333       0.22222222       0.40000000 </v>
    <v>       0.44444444       0.22222222       0.40000000 </v>
    <v>      -0.44444444       0.22222222       0.40000000 </v>
    <v>      -0.33333333       0.22222222       0.40000000 </v>
    <v>      -0.22222222       0.22222222       0.40000000 </v>
    <v>      -0.11111111       0.22222222       0.40000000 </v>
    <v>       0.33333333       0.33333333       0.40000000 </v>
    <v>       0.44444444       0.33333333       0.40000000 </v>
    <v>      -0.44444444       0.33333333       0.40000000 </v>
    <v>      -0.33333333       0.33333333       0.40000000 </v>
    <v>      -0.22222222       0.33333333       0.40000000 </v>
    <v>      -0.11111111       0.33333333       0.40000000 </v>
    <v>       0.44444444       0.44444444       0.40000000 </v>
    <v>      -0.44444444       0.44444444       0.40000000 </v>
    <v>      -0.33333333       0.44444444       0.40000000 </v>
    <v>      -0.22222222       0.44444444       0.40000000 </v>
    <v>      -0.11111111       0.44444444       0.40000000 </v>
    <v>      -0.44444444      -0.44444444       0.40000000 </v>
    <v>      -0.33333333      -0.44444444       0.40000000 </v>
    <v>      -0.22222222      -0.44444444       0.40000000 </v>
    <v>      -0.11111111      -0.44444444       0.40000000 </v>
    <v>      -0.33333333      -0.33333333       0.40000000 </v>
    <v>      -0.22222222      -0.33333333       0.40000000 </v>
    <v>      -0.11111111      -0.33333333       0.40000000 </v>
    <v>      -0.22222222      -0.22222222       0.40000000 </v>
    <v>      -0.11111111      -0.22222222       0.40000000 </v>
    <v>      -0.11111111      -0.11111111       0.40000000 </v>
   </varray>
   <varray name="weights" >
    <v>       0.00246914 </v>
    <v>       0.00987654 </v>
    <v>       0.00987654 </v>
    <v>       0.00987654 </v>
    <v>       0.00987654 </v>
    <v>       0.00493827 </v>
    <v>       0.00987654 </v>
    <v>       0.00987654 </v>
    <v>       0.00987654 </v>
    <v>       0.00987654 </v>
    <v>       0.00987654 </v>
    <v>       0.00987654 </v>
    <v>       0.00493827 </v>
    <v>       0.00493827 </v>
    <v>       0.00987654 </v>
    <v>       0.00987654 </v>
    <v>       0.00987654 </v>
    <v>       0.00987654 </v>
    <v>       0.00493827 </v>
    <v>       0.00493827 </v>
    <v>       0.00987654 </v>
    <v>       0.00987654 </v>
    <v>       0.00493827 </v>
    <v>       0.00493827 </v>
    <v>       0.00493827 </v>
    <v>       0.00493827 </v>
    <v>       0.00987654 </v>
    <v>       0.00987654 </v>
    <v>       0.00987654 </v>
    <v>       0.00987654 </v>
    <v>       0.00987654 </v>
    <v>       0.00987654 </v>
    <v>       0.00987654 </v>
    <v>       0.00987654 </v>
    <v>       0.00493827 </v>
    <v>       0.00987654 </v>
    <v>       0.00987654 </v>
    <v>       0.00987654 </v>
    <v>       0.00987654 </v>
    <v>       0.00987654 </v>
    <v>       0.00987654 </v>
    <v>       0.00987654 </v>
    <v>       0.00493827 </v>
    <v>       0.00987654 </v>
    <v>       0.00987654 </v>
    <v>       0.00987654 </v>
    <v>       0.00987654 </v>
    <v>       0.00987654 </v>
    <v>       0.00987654 </v>
    <v>       0.00493827 </v>
    <v>       0.00987654 </v>
    <v>       0.00987654 </v>
    <v>       0.00987654 </v>
    <v>       0.00987654 </v>
    <v>       0.00987654 </v>
    <v>       0.00493827 </v>
    <v>       0.00987654 </v>
    <v>       0.00987654 </v>
    <v>       0.00987654 </v>
    <v>       0.00987654 </v>
    <v>       0.00493827 </v>
    <v>       0.00987654 </v>
    <v>       0.00987654 </v>
    <v>       0.00987654 </v>
    <v>       0.00493827 </v>
    <v>       0.00987654 </v>
    <v>       0.00987654 </v>
    <v>       0.00493827 </v>
    <v>       0.00987654 </v>
    <v>       0.00493827 </v>
    <v>       0.00493827 </v>
    <v>       0.00987654 </v>
    <v>       0.00987654 </v>
    <v>       0.00987654 </v>
    <v>       0.00987654 </v>
    <v>       0.00987654 </v>
    <v>       0.00987654 </v>
    <v>       0.00987654 </v>
    <v>       0.00987654 </v>
    <v>       0.00493827 </v>
    <v>       0.00987654 </v>
    <v>       0.00987654 </v>
    <v>       0.00987654 </v>
    <v>       0.00987654 </v>
    <v>       0.00987654 </v>
    <v>       0.00987654 </v>
    <v>       0.00987654 </v>
    <v>       0.00493827 </v>
    <v>       0.00987654 </v>
    <v>       0.00987654 </v>
    <v>       0.00987654 </v>
    <v>       0.00987654 </v>
    <v>       0.00987654 </v>
    <v>       0.00987654 </v>
    <v>       0.00493827 </v>
    <v>       0.00987654 </v>
    <v>       0.00987654 </v>
    <v>       0.00987654 </v>
    <v>       0.00987654 </v>
    <v>       0.00987654 </v>
    <v>       0.00493827 </v>
    <v>       0.00987654 </v>
    <v>       0.00987654 </v>
    <v>       0.00987654 </v>
    <v>       0.00987654 </v>
    <v>       0.00493827 </v>
    <v>       0.00987654 </v>
    <v>       0.00987654 </v>
    <v>       0.00987654 </v>
    <v>       0.00493827 </v>
    <v>       0.00987654 </v>
    <v>       0.00987654 </v>
    <v>       0.00493827 </v>
    <v>       0.00987654 </v>
    <v>       0.00493827 </v>
   </varray>
  </kpoints>
  <scstep>
   <time name="total">   29.78   29.87</time>
   <energy>
    <i name="e_fr_energy">     -0.40258204 </i>
    <i name="e_wo_entrp">     -0.40258204 </i>
    <i name="e_0_energy">     -0.40258204 </i>
   </energy>
  </scstep>
  <scstep>
   <time name="total">   30.30   30.37</time>
   <energy>
    <i name="e_fr_energy">     -0.41307772 </i>
    <i name="e_wo_entrp">     -0.41307772 </i>
    <i name="e_0_energy">     -0.41307772 </i>
   </energy>
  </scstep>
  <scstep>
   <time name="total">   29.62   29.70</time>
   <energy>
    <i name="e_fr_energy">     -0.40691661 </i>
    <i name="e_wo_entrp">     -0.40691661 </i>
    <i name="e_0_energy">     -0.40691661 </i>
   </energy>
  </scstep>
  <scstep>
   <time name="total">   30.71   30.77</time>
   <energy>
    <i name="e_fr_energy">     -0.43301867 </i>
    <i name="e_wo_entrp">     -0.43301867 </i>
    <i name="e_0_energy">     -0.43301867 </i>
   </energy>
  </scstep>
  <scstep>
   <time name="total">   30.38   30.43</time>
   <energy>
    <i name="e_fr_energy">     -0.43804990 </i>
    <i name="e_wo_entrp">     -0.43804990 </i>
    <i name="e_0_energy">     -0.43804990 </i>
   </energy>
  </scstep>
  <scstep>
   <time name="total">   30.58   30.63</time>
   <energy>
    <i name="e_fr_energy">     -0.43862285 </i>
    <i name="e_wo_entrp">     -0.43862285 </i>
    <i name="e_0_energy">     -0.43862285 </i>
   </energy>
  </scstep>
  <scstep>
   <time name="total">   30.34   30.41</time>
   <energy>
    <i name="e_fr_energy">     -0.43904572 </i>
    <i name="e_wo_entrp">     -0.43904572 </i>
    <i name="e_0_energy">     -0.43904572 </i>
   </energy>
  </scstep>
  <scstep>
   <time name="total">   30.61   30.67</time>
   <energy>
    <i name="e_fr_energy">     -0.43904968 </i>
    <i name="e_wo_entrp">     -0.43904968 </i>
    <i name="e_0_energy">     -0.43904968 </i>
   </energy>
  </scstep>
  <scstep>
   <time name="total">   30.63   30.69</time>
   <energy>
    <i name="e_fr_energy">     -0.43905883 </i>
    <i name="e_wo_entrp">     -0.43905883 </i>
    <i name="e_0_energy">     -0.43905883 </i>
   </energy>
  </scstep>
  <scstep>
   <time name="total">   30.36   30.41</time>
   <energy>
    <i name="e_fr_energy">     -0.43905751 </i>
    <i name="e_wo_entrp">     -0.43905751 </i>
    <i name="e_0_energy">     -0.43905751 </i>
   </energy>
  </scstep>
  <kpoints>
   <generation param="Gamma">
    <v type="int" name="divisions">       9        9        5 </v>
    <v name="usershift">      0.00000000       0.00000000       0.00000000 </v>
    <v name="genvec1">      0.11111111      -0.00000000       0.00000000 </v>
    <v name="genvec2">     -0.00000000       0.11111111       0.00000000 </v>
    <v name="genvec3">      0.00000000       0.00000000       0.20000000 </v>
    <v name="shift">      0.00000000       0.00000000       0.00000000 </v>
   </generation>
   <varray name="kpointlist" >
    <v>       0.00000000       0.00000000       0.00000000 </v>
    <v>       0.11111111       0.00000000       0.00000000 </v>
    <v>       0.22222222       0.00000000       0.00000000 </v>
    <v>       0.33333333       0.00000000       0.00000000 </v>
    <v>       0.44444444       0.00000000       0.00000000 </v>
    <v>       0.11111111       0.11111111       0.00000000 </v>
    <v>       0.22222222       0.11111111       0.00000000 </v>
    <v>       0.33333333       0.11111111       0.00000000 </v>
    <v>       0.44444444       0.11111111       0.00000000 </v>
    <v>      -0.44444444       0.11111111       0.00000000 </v>
    <v>      -0.33333333       0.11111111       0.00000000 </v>
    <v>      -0.22222222       0.11111111       0.00000000 </v>
    <v>      -0.11111111       0.11111111       0.00000000 </v>
    <v>       0.22222222       0.22222222       0.00000000 </v>
    <v>       0.33333333       0.22222222       0.00000000 </v>
    <v>       0.44444444       0.22222222       0.00000000 </v>
    <v>      -0.44444444       0.22222222       0.00000000 </v>
    <v>      -0.33333333       0.22222222       0.00000000 </v>
    <v>      -0.22222222       0.22222222       0.00000000 </v>
    <v>       0.33333333       0.33333333       0.00000000 </v>
    <v>       0.44444444       0.33333333       0.00000000 </v>
    <v>      -0.44444444       0.33333333       0.00000000 </v>
    <v>      -0.33333333       0.33333333       0.00000000 </v>
    <v>       0.44444444       0.44444444       0.00000000 </v>
    <v>      -0.44444444       0.44444444       0.00000000 </v>
    <v>       0.00000000       0.00000000       0.20000000 </v>
    <v>       0.11111111       0.00000000       0.20000000 </v>
    <v>       0.22222222       0.00000000       0.20000000 </v>
    <v>       0.33333333       0.00000000       0.20000000 </v>
    <v>       0.44444444       0.00000000       0.20000000 </v>
    <v>      -0.44444444       0.00000000       0.20000000 </v>
    <v>      -0.33333333       0.00000000       0.20000000 </v>
    <v>      -0.22222222       0.00000000       0.20000000 </v>
    <v>      -0.11111111       0.00000000       0.20000000 </v>
    <v>       0.11111111       0.11111111       0.20000000 </v>
    <v>       0.22222222       0.11111111       0.20000000 </v>
    <v>       0.33333333       0.11111111       0.20000000 </v>
    <v>       0.44444444       0.11111111       0.20000000 </v>
    <v>      -0.44444444       0.11111111       0.20000000 </v>
    <v>      -0.33333333       0.11111111       0.20000000 </v>
    <v>      -0.22222222       0.11111111       0.20000000 </v>
    <v>      -0.11111111       0.11111111       0.20000000 </v>
    <v>       0.11111111       0.22222222       0.20000000 </v>
    <v>       0.22222222       0.22222222       0.20000000 </v>
    <v>       0.33333333       0.22222222       0.20000000 </v>
    <v>       0.44444444       0.22222222       0.20000000 </v>
    <v>      -0.44444444       0.22222222       0.20000000 </v>
    <v>      -0.33333333       0.22222222       0.20000000 </v>
    <v>      -0.22222222       0.22222222       0.20000000 </v>
    <v>       0.11111111       0.33333333       0.20000000 </v>
    <v>       0.22222222       0.33333333       0.20000000 </v>
    <v>       0.33333333       0.33333333       0.20000000 </v>
    <v>       0.44444444       0.33333333       0.20000000 </v>
    <v>      -0.44444444       0.33333333       0.20000000 </v>
    <v>      -0.33333333       0.33333333       0.20000000 </v>
    <v>       0.11111111       0.44444444       0.20000000 </v>
    <v>       0.22222222       0.44444444       0.20000000 </v>
    <v>       0.33333333       0.44444444       0.20000000 </v>
    <v>       0.44444444       0.44444444       0.20000000 </v>
    <v>      -0.44444444       0.44444444       0.20000000 </v>
    <v>       0.11111111      -0.44444444       0.20000000 </v>
    <v>       0.22222222      -0.44444444       0.20000000 </v>
    <v>       0.33333333      -0.44444444       0.20000000 </v>
    <v>       0.44444444      -0.44444444       0.20000000 </v>
    <v>       0.11111111      -0.33333333       0.20000000 </v>
    <v>       0.22222222      -0.33333333       0.20000000 </v>
    <v>       0.33333333      -0.33333333       0.20000000 </v>
    <v>       0.11111111      -0.22222222       0.20000000 </v>
    <v>       0.22222222      -0.22222222       0.20000000 </v>
    <v>       0.11111111      -0.11111111       0.20000000 </v>
    <v>       0.00000000       0.00000000       0.40000000 </v>
    <v>       0.11111111       0.00000000       0.40000000 </v>
    <v>       0.22222222       0.00000000       0.40000000 </v>
    <v>       0.33333333       0.00000000       0.40000000 </v>
    <v>       0.44444444       0.00000000       0.40000000 </v>
    <v>      -0.44444444       0.00000000       0.40000000 </v>
    <v>      -0.33333333       0.00000000       0.40000000 </v>
    <v>      -0.22222222       0.00000000       0.40000000 </v>
    <v>      -0.11111111       0.00000000       0.40000000 </v>
    <v>       0.11111111       0.11111111       0.40000000 </v>
    <v>       0.22222222       0.11111111       0.40000000 </v>
    <v>       0.33333333       0.11111111       0.40000000 </v>
    <v>       0.44444444       0.11111111       0.40000000 </v>
    <v>      -0.44444444       0.11111111       0.40000000 </v>
    <v>      -0.33333333       0.11111111       0.40000000 </v>
    <v>      -0.22222222       0.11111111       0.40000000 </v>
    <v>      -0.11111111       0.11111111       0.40000000 </v>
    <v>       0.11111111       0.22222222       0.40000000 </v>
    <v>       0.22222222       0.22222222       0.40000000 </v>
    <v>       0.33333333       0.22222222       0.40000000 </v>
    <v>       0.44444444       0.22222222       0.40000000 </v>
    <v>      -0.44444444       0.22222222       0.40000000 </v>
    <v>      -0.33333333       0.22222222       0.40000000 </v>
    <v>      -0.22222222       0.22222222       0.40000000 </v>
    <v>       0.11111111       0.33333333       0.40000000 </v>
    <v>       0.22222222       0.33333333       0.40000000 </v>
    <v>       0.33333333       0.33333333       0.40000000 </v>
    <v>       0.44444444       0.33333333       0.40000000 </v>
    <v>      -0.44444444       0.33333333       0.40000000 </v>
    <v>      -0.33333333       0.33333333       0.40000000 </v>
    <v>       0.11111111       0.44444444       0.40000000 </v>
    <v>       0.22222222       0.44444444       0.40000000 </v>
    <v>       0.33333333       0.44444444       0.40000000 </v>
    <v>       0.44444444       0.44444444       0.40000000 </v>
    <v>      -0.44444444       0.44444444       0.40000000 </v>
    <v>       0.11111111      -0.44444444       0.40000000 </v>
    <v>       0.22222222      -0.44444444       0.40000000 </v>
    <v>       0.33333333      -0.44444444       0.40000000 </v>
    <v>       0.44444444      -0.44444444       0.40000000 </v>
    <v>       0.11111111      -0.33333333       0.40000000 </v>
    <v>       0.22222222      -0.33333333       0.40000000 </v>
    <v>       0.33333333      -0.33333333       0.40000000 </v>
    <v>       0.11111111      -0.22222222       0.40000000 </v>
    <v>       0.22222222      -0.22222222       0.40000000 </v>
    <v>       0.11111111      -0.11111111       0.40000000 </v>
   </varray>
   <varray name="weights" >
    <v>       0.00246914 </v>
    <v>       0.00987654 </v>
    <v>       0.00987654 </v>
    <v>       0.00987654 </v>
    <v>       0.00987654 </v>
    <v>       0.00493827 </v>
    <v>       0.00987654 </v>
    <v>       0.00987654 </v>
    <v>       0.00987654 </v>
    <v>       0.00987654 </v>
    <v>       0.00987654 </v>
    <v>       0.00987654 </v>
    <v>       0.00493827 </v>
    <v>       0.00493827 </v>
    <v>       0.00987654 </v>
    <v>       0.00987654 </v>
    <v>       0.00987654 </v>
    <v>       0.00987654 </v>
    <v>       0.00493827 </v>
    <v>       0.00493827 </v>
    <v>       0.00987654 </v>
    <v>       0.00987654 </v>
    <v>       0.00493827 </v>
    <v>       0.00493827 </v>
    <v>       0.00493827 </v>
    <v>       0.00493827 </v>
    <v>       0.00987654 </v>
    <v>       0.00987654 </v>
    <v>       0.00987654 </v>
    <v>       0.00987654 </v>
    <v>       0.00987654 </v>
    <v>       0.00987654 </v>
    <v>       0.00987654 </v>
    <v>       0.00987654 </v>
    <v>       0.00987654 </v>
    <v>       0.00987654 </v>
    <v>       0.00987654 </v>
    <v>       0.00987654 </v>
    <v>       0.00987654 </v>
    <v>       0.00987654 </v>
    <v>       0.00987654 </v>
    <v>       0.00493827 </v>
    <v>       0.00987654 </v>
    <v>       0.00987654 </v>
    <v>       0.00987654 </v>
    <v>       0.00987654 </v>
    <v>       0.00987654 </v>
    <v>       0.00987654 </v>
    <v>       0.00493827 </v>
    <v>       0.00987654 </v>
    <v>       0.00987654 </v>
    <v>       0.00987654 </v>
    <v>       0.00987654 </v>
    <v>       0.00987654 </v>
    <v>       0.00493827 </v>
    <v>       0.00987654 </v>
    <v>       0.00987654 </v>
    <v>       0.00987654 </v>
    <v>       0.00987654 </v>
    <v>       0.00493827 </v>
    <v>       0.00987654 </v>
    <v>       0.00987654 </v>
    <v>       0.00987654 </v>
    <v>       0.00493827 </v>
    <v>       0.00987654 </v>
    <v>       0.00987654 </v>
    <v>       0.00493827 </v>
    <v>       0.00987654 </v>
    <v>       0.00493827 </v>
    <v>       0.00493827 </v>
    <v>       0.00493827 </v>
    <v>       0.00987654 </v>
    <v>       0.00987654 </v>
    <v>       0.00987654 </v>
    <v>       0.00987654 </v>
    <v>       0.00987654 </v>
    <v>       0.00987654 </v>
    <v>       0.00987654 </v>
    <v>       0.00987654 </v>
    <v>       0.00987654 </v>
    <v>       0.00987654 </v>
    <v>       0.00987654 </v>
    <v>       0.00987654 </v>
    <v>       0.00987654 </v>
    <v>       0.00987654 </v>
    <v>       0.00987654 </v>
    <v>       0.00493827 </v>
    <v>       0.00987654 </v>
    <v>       0.00987654 </v>
    <v>       0.00987654 </v>
    <v>       0.00987654 </v>
    <v>       0.00987654 </v>
    <v>       0.00987654 </v>
    <v>       0.00493827 </v>
    <v>       0.00987654 </v>
    <v>       0.00987654 </v>
    <v>       0.00987654 </v>
    <v>       0.00987654 </v>
    <v>       0.00987654 </v>
    <v>       0.00493827 </v>
    <v>       0.00987654 </v>
    <v>       0.00987654 </v>
    <v>       0.00987654 </v>
    <v>       0.00987654 </v>
    <v>       0.00493827 </v>
    <v>       0.00987654 </v>
    <v>       0.00987654 </v>
    <v>       0.00987654 </v>
    <v>       0.00493827 </v>
    <v>       0.00987654 </v>
    <v>       0.00987654 </v>
    <v>       0.00493827 </v>
    <v>       0.00987654 </v>
    <v>       0.00493827 </v>
    <v>       0.00493827 </v>
   </varray>
  </kpoints>
  <scstep>
   <time name="total">   29.61   29.68</time>
   <energy>
    <i name="e_fr_energy">     -0.40250604 </i>
    <i name="e_wo_entrp">     -0.40250604 </i>
    <i name="e_0_energy">     -0.40250604 </i>
   </energy>
  </scstep>
  <scstep>
   <time name="total">   29.97   30.05</time>
   <energy>
    <i name="e_fr_energy">     -0.41307838 </i>
    <i name="e_wo_entrp">     -0.41307838 </i>
    <i name="e_0_energy">     -0.41307838 </i>
   </energy>
  </scstep>
  <scstep>
   <time name="total">   30.35   30.41</time>
   <energy>
    <i name="e_fr_energy">     -0.40691795 </i>
    <i name="e_wo_entrp">     -0.40691795 </i>
    <i name="e_0_energy">     -0.40691795 </i>
   </energy>
  </scstep>
  <scstep>
   <time name="total">   29.84   29.89</time>
   <energy>
    <i name="e_fr_energy">     -0.43302455 </i>
    <i name="e_wo_entrp">     -0.43302455 </i>
    <i name="e_0_energy">     -0.43302455 </i>
   </energy>
  </scstep>
  <scstep>
   <time name="total">   30.17   30.24</time>
   <energy>
    <i name="e_fr_energy">     -0.43804594 </i>
    <i name="e_wo_entrp">     -0.43804594 </i>
    <i name="e_0_energy">     -0.43804594 </i>
   </energy>
  </scstep>
  <scstep>
   <time name="total">   30.32   30.40</time>
   <energy>
    <i name="e_fr_energy">     -0.43862533 </i>
    <i name="e_wo_entrp">     -0.43862533 </i>
    <i name="e_0_energy">     -0.43862533 </i>
   </energy>
  </scstep>
  <scstep>
   <time name="total">   30.45   30.52</time>
   <energy>
    <i name="e_fr_energy">     -0.43904651 </i>
    <i name="e_wo_entrp">     -0.43904651 </i>
    <i name="e_0_energy">     -0.43904651 </i>
   </energy>
  </scstep>
  <scstep>
   <time name="total">   30.22   30.31</time>
   <energy>
    <i name="e_fr_energy">     -0.43905044 </i>
    <i name="e_wo_entrp">     -0.43905044 </i>
    <i name="e_0_energy">     -0.43905044 </i>
   </energy>
  </scstep>
  <scstep>
   <time name="total">   30.51   30.59</time>
   <energy>
    <i name="e_fr_energy">     -0.43905915 </i>
    <i name="e_wo_entrp">     -0.43905915 </i>
    <i name="e_0_energy">     -0.43905915 </i>
   </energy>
  </scstep>
  <scstep>
   <time name="total">   30.48   30.54</time>
   <energy>
    <i name="e_fr_energy">     -0.43905823 </i>
    <i name="e_wo_entrp">     -0.43905823 </i>
    <i name="e_0_energy">     -0.43905823 </i>
   </energy>
  </scstep>
  <kpoints>
   <generation param="Gamma">
    <v type="int" name="divisions">       9        9        5 </v>
    <v name="usershift">      0.00000000       0.00000000       0.00000000 </v>
    <v name="genvec1">      0.11111111      -0.00000000       0.00000000 </v>
    <v name="genvec2">     -0.00000000       0.11111111       0.00000000 </v>
    <v name="genvec3">      0.00000000       0.00000000       0.20000000 </v>
    <v name="shift">      0.00000000       0.00000000       0.00000000 </v>
   </generation>
   <varray name="kpointlist" >
    <v>       0.00000000       0.00000000       0.00000000 </v>
    <v>       0.11111111       0.00000000       0.00000000 </v>
    <v>       0.22222222       0.00000000       0.00000000 </v>
    <v>       0.33333333       0.00000000       0.00000000 </v>
    <v>       0.44444444       0.00000000       0.00000000 </v>
    <v>       0.11111111       0.11111111       0.00000000 </v>
    <v>       0.22222222       0.11111111       0.00000000 </v>
    <v>       0.33333333       0.11111111       0.00000000 </v>
    <v>       0.44444444       0.11111111       0.00000000 </v>
    <v>       0.22222222       0.22222222       0.00000000 </v>
    <v>       0.33333333       0.22222222       0.00000000 </v>
    <v>       0.33333333       0.33333333       0.00000000 </v>
    <v>       0.00000000       0.00000000       0.20000000 </v>
    <v>       0.11111111       0.00000000       0.20000000 </v>
    <v>       0.22222222       0.00000000       0.20000000 </v>
    <v>       0.33333333       0.00000000       0.20000000 </v>
    <v>       0.44444444       0.00000000       0.20000000 </v>
    <v>       0.11111111       0.11111111       0.20000000 </v>
    <v>       0.22222222       0.11111111       0.20000000 </v>
    <v>       0.33333333       0.11111111       0.20000000 </v>
    <v>       0.44444444       0.11111111       0.20000000 </v>
    <v>       0.22222222       0.22222222       0.20000000 </v>
    <v>       0.33333333       0.22222222       0.20000000 </v>
    <v>       0.33333333       0.33333333       0.20000000 </v>
    <v>       0.00000000       0.00000000       0.40000000 </v>
    <v>       0.11111111       0.00000000       0.40000000 </v>
    <v>       0.22222222       0.00000000       0.40000000 </v>
    <v>       0.33333333       0.00000000       0.40000000 </v>
    <v>       0.44444444       0.00000000       0.40000000 </v>
    <v>       0.11111111       0.11111111       0.40000000 </v>
    <v>       0.22222222       0.11111111       0.40000000 </v>
    <v>       0.33333333       0.11111111       0.40000000 </v>
    <v>       0.44444444       0.11111111       0.40000000 </v>
    <v>       0.22222222       0.22222222       0.40000000 </v>
    <v>       0.33333333       0.22222222       0.40000000 </v>
    <v>       0.33333333       0.33333333       0.40000000 </v>
   </varray>
   <varray name="weights" >
    <v>       0.00246914 </v>
    <v>       0.01481481 </v>
    <v>       0.01481481 </v>
    <v>       0.01481481 </v>
    <v>       0.01481481 </v>
    <v>       0.01481481 </v>
    <v>       0.02962963 </v>
    <v>       0.02962963 </v>
    <v>       0.01481481 </v>
    <v>       0.01481481 </v>
    <v>       0.02962963 </v>
    <v>       0.00493827 </v>
    <v>       0.00493827 </v>
    <v>       0.02962963 </v>
    <v>       0.02962963 </v>
    <v>       0.02962963 </v>
    <v>       0.02962963 </v>
    <v>       0.02962963 </v>
    <v>       0.05925926 </v>
    <v>       0.05925926 </v>
    <v>       0.02962963 </v>
    <v>       0.02962963 </v>
    <v>       0.05925926 </v>
    <v>       0.00987654 </v>
    <v>       0.00493827 </v>
    <v>       0.02962963 </v>
    <v>       0.02962963 </v>
    <v>       0.02962963 </v>
    <v>       0.02962963 </v>
    <v>       0.02962963 </v>
    <v>       0.05925926 </v>
    <v>       0.05925926 </v>
    <v>       0.02962963 </v>
    <v>       0.02962963 </v>
    <v>       0.05925926 </v>
    <v>       0.00987654 </v>
   </varray>
  </kpoints>
  <scstep>
   <time name="total">   22.86   22.91</time>
   <energy>
    <i name="e_fr_energy">     -0.42276321 </i>
    <i name="e_wo_entrp">     -0.42276321 </i>
    <i name="e_0_energy">     -0.42276321 </i>
   </energy>
  </scstep>
  <scstep>
   <time name="total">   22.92   22.97</time>
   <energy>
    <i name="e_fr_energy">     -0.43443632 </i>
    <i name="e_wo_entrp">     -0.43443632 </i>
    <i name="e_0_energy">     -0.43443632 </i>
   </energy>
  </scstep>
  <scstep>
   <time name="total">   23.01   23.05</time>
   <energy>
    <i name="e_fr_energy">     -0.42998529 </i>
    <i name="e_wo_entrp">     -0.42998529 </i>
    <i name="e_0_energy">     -0.42998529 </i>
   </energy>
  </scstep>
  <scstep>
   <time name="total">   22.70   22.76</time>
   <energy>
    <i name="e_fr_energy">     -0.45748844 </i>
    <i name="e_wo_entrp">     -0.45748844 </i>
    <i name="e_0_energy">     -0.45748844 </i>
   </energy>
  </scstep>
  <scstep>
   <time name="total">   22.90   22.95</time>
   <energy>
    <i name="e_fr_energy">     -0.46172887 </i>
    <i name="e_wo_entrp">     -0.46172887 </i>
    <i name="e_0_energy">     -0.46172887 </i>
   </energy>
  </scstep>
  <scstep>
   <time name="total">   22.88   22.93</time>
   <energy>
    <i name="e_fr_energy">     -0.46303113 </i>
    <i name="e_wo_entrp">     -0.46303113 </i>
    <i name="e_0_energy">     -0.46303113 </i>
   </energy>
  </scstep>
  <scstep>
   <time name="total">   22.86   22.91</time>
   <energy>
    <i name="e_fr_energy">     -0.46351738 </i>
    <i name="e_wo_entrp">     -0.46351738 </i>
    <i name="e_0_energy">     -0.46351738 </i>
   </energy>
  </scstep>
  <scstep>
   <time name="total">   23.03   23.08</time>
   <energy>
    <i name="e_fr_energy">     -0.46354710 </i>
    <i name="e_wo_entrp">     -0.46354710 </i>
    <i name="e_0_energy">     -0.46354710 </i>
   </energy>
  </scstep>
  <scstep>
   <time name="total">   22.90   22.95</time>
   <energy>
    <i name="e_fr_energy">     -0.46355447 </i>
    <i name="e_wo_entrp">     -0.46355447 </i>
    <i name="e_0_energy">     -0.46355447 </i>
   </energy>
  </scstep>
  <scstep>
   <time name="total">   22.87   22.91</time>
   <energy>
    <i name="e_fr_energy">     -0.46355293 </i>
    <i name="e_wo_entrp">     -0.46355293 </i>
    <i name="e_0_energy">     -0.46355293 </i>
   </energy>
  </scstep>
  <scstep>
   <time name="total">   22.38   22.42</time>
   <energy>
    <i name="e_fr_energy">     -0.46355301 </i>
    <i name="e_wo_entrp">     -0.46355301 </i>
    <i name="e_0_energy">     -0.46355301 </i>
   </energy>
  </scstep>
  <kpoints>
   <generation param="Gamma">
    <v type="int" name="divisions">       9        9        5 </v>
    <v name="usershift">      0.00000000       0.00000000       0.00000000 </v>
    <v name="genvec1">      0.11111111      -0.00000000       0.00000000 </v>
    <v name="genvec2">     -0.00000000       0.11111111       0.00000000 </v>
    <v name="genvec3">      0.00000000       0.00000000       0.20000000 </v>
    <v name="shift">      0.00000000       0.00000000       0.00000000 </v>
   </generation>
   <varray name="kpointlist" >
    <v>       0.00000000       0.00000000       0.00000000 </v>
    <v>       0.11111111       0.00000000       0.00000000 </v>
    <v>       0.22222222       0.00000000       0.00000000 </v>
    <v>       0.33333333       0.00000000       0.00000000 </v>
    <v>       0.44444444       0.00000000       0.00000000 </v>
    <v>       0.11111111       0.11111111       0.00000000 </v>
    <v>       0.22222222       0.11111111       0.00000000 </v>
    <v>       0.33333333       0.11111111       0.00000000 </v>
    <v>       0.44444444       0.11111111       0.00000000 </v>
    <v>       0.22222222       0.22222222       0.00000000 </v>
    <v>       0.33333333       0.22222222       0.00000000 </v>
    <v>       0.33333333       0.33333333       0.00000000 </v>
    <v>       0.00000000       0.00000000       0.20000000 </v>
    <v>       0.11111111       0.00000000       0.20000000 </v>
    <v>       0.22222222       0.00000000       0.20000000 </v>
    <v>       0.33333333       0.00000000       0.20000000 </v>
    <v>       0.44444444       0.00000000       0.20000000 </v>
    <v>       0.11111111       0.11111111       0.20000000 </v>
    <v>       0.22222222       0.11111111       0.20000000 </v>
    <v>       0.33333333       0.11111111       0.20000000 </v>
    <v>       0.44444444       0.11111111       0.20000000 </v>
    <v>       0.22222222       0.22222222       0.20000000 </v>
    <v>       0.33333333       0.22222222       0.20000000 </v>
    <v>       0.33333333       0.33333333       0.20000000 </v>
    <v>       0.00000000       0.00000000       0.40000000 </v>
    <v>       0.11111111       0.00000000       0.40000000 </v>
    <v>       0.22222222       0.00000000       0.40000000 </v>
    <v>       0.33333333       0.00000000       0.40000000 </v>
    <v>       0.44444444       0.00000000       0.40000000 </v>
    <v>       0.11111111       0.11111111       0.40000000 </v>
    <v>       0.22222222       0.11111111       0.40000000 </v>
    <v>       0.33333333       0.11111111       0.40000000 </v>
    <v>       0.44444444       0.11111111       0.40000000 </v>
    <v>       0.22222222       0.22222222       0.40000000 </v>
    <v>       0.33333333       0.22222222       0.40000000 </v>
    <v>       0.33333333       0.33333333       0.40000000 </v>
   </varray>
   <varray name="weights" >
    <v>       0.00246914 </v>
    <v>       0.01481481 </v>
    <v>       0.01481481 </v>
    <v>       0.01481481 </v>
    <v>       0.01481481 </v>
    <v>       0.01481481 </v>
    <v>       0.02962963 </v>
    <v>       0.02962963 </v>
    <v>       0.01481481 </v>
    <v>       0.01481481 </v>
    <v>       0.02962963 </v>
    <v>       0.00493827 </v>
    <v>       0.00493827 </v>
    <v>       0.02962963 </v>
    <v>       0.02962963 </v>
    <v>       0.02962963 </v>
    <v>       0.02962963 </v>
    <v>       0.02962963 </v>
    <v>       0.05925926 </v>
    <v>       0.05925926 </v>
    <v>       0.02962963 </v>
    <v>       0.02962963 </v>
    <v>       0.05925926 </v>
    <v>       0.00987654 </v>
    <v>       0.00493827 </v>
    <v>       0.02962963 </v>
    <v>       0.02962963 </v>
    <v>       0.02962963 </v>
    <v>       0.02962963 </v>
    <v>       0.02962963 </v>
    <v>       0.05925926 </v>
    <v>       0.05925926 </v>
    <v>       0.02962963 </v>
    <v>       0.02962963 </v>
    <v>       0.05925926 </v>
    <v>       0.00987654 </v>
   </varray>
  </kpoints>
  <varray name="epsilon" >
   <v>       4.37234871      -0.00000000       0.00000000 </v>
   <v>       0.00000000       4.37234994       0.00000000 </v>
   <v>       0.00000000       0.00000000       4.57297469 </v>
  </varray>
  <kpoints>
   <generation param="Gamma">
    <v type="int" name="divisions">       9        9        5 </v>
    <v name="usershift">      0.00000000       0.00000000       0.00000000 </v>
    <v name="genvec1">      0.11111111      -0.00000000       0.00000000 </v>
    <v name="genvec2">     -0.00000000       0.11111111       0.00000000 </v>
    <v name="genvec3">      0.00000000       0.00000000       0.20000000 </v>
    <v name="shift">      0.00000000       0.00000000       0.00000000 </v>
   </generation>
   <varray name="kpointlist" >
    <v>       0.00000000       0.00000000       0.00000000 </v>
    <v>       0.11111111       0.00000000       0.00000000 </v>
    <v>       0.22222222       0.00000000       0.00000000 </v>
    <v>       0.33333333       0.00000000       0.00000000 </v>
    <v>       0.44444444       0.00000000       0.00000000 </v>
    <v>       0.00000000       0.11111111       0.00000000 </v>
    <v>       0.11111111       0.11111111       0.00000000 </v>
    <v>       0.22222222       0.11111111       0.00000000 </v>
    <v>       0.33333333       0.11111111       0.00000000 </v>
    <v>       0.44444444       0.11111111       0.00000000 </v>
    <v>      -0.44444444       0.11111111       0.00000000 </v>
    <v>      -0.33333333       0.11111111       0.00000000 </v>
    <v>      -0.22222222       0.11111111       0.00000000 </v>
    <v>      -0.11111111       0.11111111       0.00000000 </v>
    <v>       0.00000000       0.22222222       0.00000000 </v>
    <v>       0.11111111       0.22222222       0.00000000 </v>
    <v>       0.22222222       0.22222222       0.00000000 </v>
    <v>       0.33333333       0.22222222       0.00000000 </v>
    <v>       0.44444444       0.22222222       0.00000000 </v>
    <v>      -0.44444444       0.22222222       0.00000000 </v>
    <v>      -0.33333333       0.22222222       0.00000000 </v>
    <v>      -0.22222222       0.22222222       0.00000000 </v>
    <v>      -0.11111111       0.22222222       0.00000000 </v>
    <v>       0.00000000       0.33333333       0.00000000 </v>
    <v>       0.11111111       0.33333333       0.00000000 </v>
    <v>       0.22222222       0.33333333       0.00000000 </v>
    <v>       0.33333333       0.33333333       0.00000000 </v>
    <v>       0.44444444       0.33333333       0.00000000 </v>
    <v>      -0.44444444       0.33333333       0.00000000 </v>
    <v>      -0.33333333       0.33333333       0.00000000 </v>
    <v>      -0.22222222       0.33333333       0.00000000 </v>
    <v>      -0.11111111       0.33333333       0.00000000 </v>
    <v>       0.00000000       0.44444444       0.00000000 </v>
    <v>       0.11111111       0.44444444       0.00000000 </v>
    <v>       0.22222222       0.44444444       0.00000000 </v>
    <v>       0.33333333       0.44444444       0.00000000 </v>
    <v>       0.44444444       0.44444444       0.00000000 </v>
    <v>      -0.44444444       0.44444444       0.00000000 </v>
    <v>      -0.33333333       0.44444444       0.00000000 </v>
    <v>      -0.22222222       0.44444444       0.00000000 </v>
    <v>      -0.11111111       0.44444444       0.00000000 </v>
    <v>       0.00000000       0.00000000       0.20000000 </v>
    <v>       0.11111111       0.00000000       0.20000000 </v>
    <v>       0.22222222       0.00000000       0.20000000 </v>
    <v>       0.33333333       0.00000000       0.20000000 </v>
    <v>       0.44444444       0.00000000       0.20000000 </v>
    <v>      -0.44444444       0.00000000       0.20000000 </v>
    <v>      -0.33333333       0.00000000       0.20000000 </v>
    <v>      -0.22222222       0.00000000       0.20000000 </v>
    <v>      -0.11111111       0.00000000       0.20000000 </v>
    <v>       0.00000000       0.11111111       0.20000000 </v>
    <v>       0.11111111       0.11111111       0.20000000 </v>
    <v>       0.22222222       0.11111111       0.20000000 </v>
    <v>       0.33333333       0.11111111       0.20000000 </v>
    <v>       0.44444444       0.11111111       0.20000000 </v>
    <v>      -0.44444444       0.11111111       0.20000000 </v>
    <v>      -0.33333333       0.11111111       0.20000000 </v>
    <v>      -0.22222222       0.11111111       0.20000000 </v>
    <v>      -0.11111111       0.11111111       0.20000000 </v>
    <v>       0.00000000       0.22222222       0.20000000 </v>
    <v>       0.11111111       0.22222222       0.20000000 </v>
    <v>       0.22222222       0.22222222       0.20000000 </v>
    <v>       0.33333333       0.22222222       0.20000000 </v>
    <v>       0.44444444       0.22222222       0.20000000 </v>
    <v>      -0.44444444       0.22222222       0.20000000 </v>
    <v>      -0.33333333       0.22222222       0.20000000 </v>
    <v>      -0.22222222       0.22222222       0.20000000 </v>
    <v>      -0.11111111       0.22222222       0.20000000 </v>
    <v>       0.00000000       0.33333333       0.20000000 </v>
    <v>       0.11111111       0.33333333       0.20000000 </v>
    <v>       0.22222222       0.33333333       0.20000000 </v>
    <v>       0.33333333       0.33333333       0.20000000 </v>
    <v>       0.44444444       0.33333333       0.20000000 </v>
    <v>      -0.44444444       0.33333333       0.20000000 </v>
    <v>      -0.33333333       0.33333333       0.20000000 </v>
    <v>      -0.22222222       0.33333333       0.20000000 </v>
    <v>      -0.11111111       0.33333333       0.20000000 </v>
    <v>       0.00000000       0.44444444       0.20000000 </v>
    <v>       0.11111111       0.44444444       0.20000000 </v>
    <v>       0.22222222       0.44444444       0.20000000 </v>
[...]
        <r>  0.2826  0.0000  0.0004  0.0010  0.0000  0.0000  0.0000  0.0000  0.0000 </r>
       </set>
       <set comment="band 2">
        <r>  0.0107  0.0020  0.0065  0.0112  0.0000  0.0000  0.0000  0.0000  0.0000 </r>
        <r>  0.0107  0.0020  0.0065  0.0112  0.0000  0.0000  0.0000  0.0000  0.0000 </r>
        <r>  0.2967  0.0000  0.0005  0.0004  0.0000  0.0000  0.0000  0.0000  0.0000 </r>
        <r>  0.2968  0.0000  0.0005  0.0004  0.0000  0.0000  0.0000  0.0000  0.0000 </r>
       </set>
       <set comment="band 3">
        <r>  0.0681  0.0069  0.0008  0.0064  0.0000  0.0000  0.0000  0.0000  0.0000 </r>
        <r>  0.0681  0.0069  0.0008  0.0064  0.0000  0.0000  0.0000  0.0000  0.0000 </r>
        <r>  0.0116  0.0047  0.0523  0.1000  0.0000  0.0000  0.0000  0.0000  0.0000 </r>
        <r>  0.0116  0.0047  0.0523  0.1000  0.0000  0.0000  0.0000  0.0000  0.0000 </r>
       </set>
       <set comment="band 4">
        <r>  0.0557  0.0112  0.0009  0.0048  0.0000  0.0000  0.0000  0.0000  0.0000 </r>
        <r>  0.0557  0.0112  0.0009  0.0048  0.0000  0.0000  0.0000  0.0000  0.0000 </r>
        <r>  0.0213  0.0004  0.0340  0.1224  0.0000  0.0000  0.0000  0.0000  0.0000 </r>
        <r>  0.0213  0.0004  0.0340  0.1224  0.0000  0.0000  0.0000  0.0000  0.0000 </r>
       </set>
       <set comment="band 5">
        <r>  0.0125  0.0243  0.0001  0.0203  0.0000  0.0000  0.0000  0.0000  0.0000 </r>
        <r>  0.0125  0.0243  0.0001  0.0203  0.0000  0.0000  0.0000  0.0000  0.0000 </r>
        <r>  0.0000  0.1688  0.0268  0.0102  0.0000  0.0000  0.0000  0.0000  0.0000 </r>
        <r>  0.0000  0.1688  0.0268  0.0102  0.0000  0.0000  0.0000  0.0000  0.0000 </r>
       </set>
       <set comment="band 6">
        <r>  0.0031  0.0248  0.0040  0.0144  0.0000  0.0000  0.0000  0.0000  0.0000 </r>
        <r>  0.0031  0.0248  0.0040  0.0144  0.0000  0.0000  0.0000  0.0000  0.0000 </r>
        <r>  0.0001  0.1328  0.0397  0.0465  0.0000  0.0000  0.0000  0.0000  0.0000 </r>
        <r>  0.0001  0.1328  0.0397  0.0465  0.0000  0.0000  0.0000  0.0000  0.0000 </r>
       </set>
       <set comment="band 7">
        <r>  0.0144  0.0005  0.0283  0.0101  0.0000  0.0000  0.0000  0.0000  0.0000 </r>
        <r>  0.0144  0.0005  0.0283  0.0101  0.0000  0.0000  0.0000  0.0000  0.0000 </r>
        <r>  0.0020  0.0849  0.1164  0.0388  0.0000  0.0000  0.0000  0.0000  0.0000 </r>
        <r>  0.0020  0.0849  0.1164  0.0388  0.0000  0.0000  0.0000  0.0000  0.0000 </r>
       </set>
       <set comment="band 8">
        <r>  0.0017  0.0007  0.0278  0.0064  0.0000  0.0000  0.0000  0.0000  0.0000 </r>
        <r>  0.0017  0.0007  0.0278  0.0064  0.0000  0.0000  0.0000  0.0000  0.0000 </r>
        <r>  0.0002  0.0472  0.1808  0.0475  0.0000  0.0000  0.0000  0.0000  0.0000 </r>
        <r>  0.0002  0.0472  0.1808  0.0475  0.0000  0.0000  0.0000  0.0000  0.0000 </r>
       </set>
       <set comment="band 9">
        <r>  0.0094  0.0074  0.0120  0.0152  0.0000  0.0000  0.0000  0.0000  0.0000 </r>
        <r>  0.0094  0.0074  0.0120  0.0152  0.0000  0.0000  0.0000  0.0000  0.0000 </r>
        <r>  0.0157  0.0409  0.0303  0.0105  0.0000  0.0000  0.0000  0.0000  0.0000 </r>
        <r>  0.0157  0.0409  0.0303  0.0105  0.0000  0.0000  0.0000  0.0000  0.0000 </r>
       </set>
       <set comment="band 10">
        <r>  0.0124  0.0071  0.0229  0.0151  0.0000  0.0000  0.0000  0.0000  0.0000 </r>
        <r>  0.0124  0.0071  0.0229  0.0151  0.0000  0.0000  0.0000  0.0000  0.0000 </r>
        <r>  0.0340  0.0267  0.0086  0.0315  0.0000  0.0000  0.0000  0.0000  0.0000 </r>
        <r>  0.0340  0.0267  0.0086  0.0315  0.0000  0.0000  0.0000  0.0000  0.0000 </r>
       </set>
       <set comment="band 11">
        <r>  0.0251  0.0037  0.0280  0.0146  0.0000  0.0000  0.0000  0.0000  0.0000 </r>
        <r>  0.0251  0.0037  0.0280  0.0146  0.0000  0.0000  0.0000  0.0000  0.0000 </r>
        <r>  0.0172  0.0484  0.0055  0.0182  0.0000  0.0000  0.0000  0.0000  0.0000 </r>
        <r>  0.0172  0.0484  0.0055  0.0182  0.0000  0.0000  0.0000  0.0000  0.0000 </r>
       </set>
       <set comment="band 12">
        <r>  0.0028  0.0055  0.0468  0.0166  0.0000  0.0000  0.0000  0.0000  0.0000 </r>
        <r>  0.0028  0.0055  0.0468  0.0166  0.0000  0.0000  0.0000  0.0000  0.0000 </r>
        <r>  0.0174  0.0164  0.0174  0.0409  0.0000  0.0000  0.0000  0.0000  0.0000 </r>
        <r>  0.0174  0.0164  0.0174  0.0409  0.0000  0.0000  0.0000  0.0000  0.0000 </r>
       </set>
       <set comment="band 13">
        <r>  0.1345  0.0202  0.0019  0.0023  0.0000  0.0000  0.0000  0.0000  0.0000 </r>
        <r>  0.1345  0.0202  0.0019  0.0023  0.0000  0.0000  0.0000  0.0000  0.0000 </r>
        <r>  0.0144  0.0169  0.0206  0.0720  0.0000  0.0000  0.0000  0.0000  0.0000 </r>
        <r>  0.0144  0.0169  0.0206  0.0720  0.0000  0.0000  0.0000  0.0000  0.0000 </r>
       </set>
       <set comment="band 14">
        <r>  0.1166  0.0014  0.0152  0.0029  0.0000  0.0000  0.0000  0.0000  0.0000 </r>
        <r>  0.1166  0.0014  0.0152  0.0029  0.0000  0.0000  0.0000  0.0000  0.0000 </r>
        <r>  0.0105  0.0189  0.0271  0.0918  0.0000  0.0000  0.0000  0.0000  0.0000 </r>
        <r>  0.0105  0.0189  0.0271  0.0918  0.0000  0.0000  0.0000  0.0000  0.0000 </r>
       </set>
       <set comment="band 15">
        <r>  0.0135  0.0367  0.0013  0.0210  0.0000  0.0000  0.0000  0.0000  0.0000 </r>
        <r>  0.0135  0.0367  0.0013  0.0210  0.0000  0.0000  0.0000  0.0000  0.0000 </r>
        <r>  0.0071  0.0171  0.0181  0.0006  0.0000  0.0000  0.0000  0.0000  0.0000 </r>
        <r>  0.0071  0.0171  0.0181  0.0006  0.0000  0.0000  0.0000  0.0000  0.0000 </r>
       </set>
       <set comment="band 16">
        <r>  0.0030  0.0698  0.0056  0.0211  0.0000  0.0000  0.0000  0.0000  0.0000 </r>
        <r>  0.0030  0.0698  0.0056  0.0211  0.0000  0.0000  0.0000  0.0000  0.0000 </r>
        <r>  0.0052  0.0012  0.0171  0.0090  0.0000  0.0000  0.0000  0.0000  0.0000 </r>
        <r>  0.0052  0.0012  0.0171  0.0090  0.0000  0.0000  0.0000  0.0000  0.0000 </r>
       </set>
      </set>
      <set comment="kpoint 35">
       <set comment="band 1">
        <r>  0.0094  0.0044  0.0042  0.0115  0.0000  0.0000  0.0000  0.0000  0.0000 </r>
        <r>  0.0098  0.0045  0.0040  0.0111  0.0000  0.0000  0.0000  0.0000  0.0000 </r>
        <r>  0.2997  0.0000  0.0001  0.0003  0.0000  0.0000  0.0000  0.0000  0.0000 </r>
        <r>  0.2997  0.0000  0.0001  0.0004  0.0000  0.0000  0.0000  0.0000  0.0000 </r>
       </set>
       <set comment="band 2">
        <r>  0.0047  0.0049  0.0053  0.0113  0.0000  0.0000  0.0000  0.0000  0.0000 </r>
        <r>  0.0043  0.0048  0.0054  0.0118  0.0000  0.0000  0.0000  0.0000  0.0000 </r>
        <r>  0.3071  0.0000  0.0001  0.0001  0.0000  0.0000  0.0000  0.0000  0.0000 </r>
        <r>  0.3072  0.0000  0.0001  0.0000  0.0000  0.0000  0.0000  0.0000  0.0000 </r>
       </set>
       <set comment="band 3">
        <r>  0.0743  0.0032  0.0015  0.0129  0.0000  0.0000  0.0000  0.0000  0.0000 </r>
        <r>  0.0689  0.0113  0.0016  0.0033  0.0000  0.0000  0.0000  0.0000  0.0000 </r>
        <r>  0.0021  0.0190  0.0350  0.0984  0.0000  0.0000  0.0000  0.0000  0.0000 </r>
        <r>  0.0017  0.0188  0.0362  0.1012  0.0000  0.0000  0.0000  0.0000  0.0000 </r>
       </set>
       <set comment="band 4">
        <r>  0.0695  0.0100  0.0017  0.0023  0.0000  0.0000  0.0000  0.0000  0.0000 </r>
        <r>  0.0771  0.0033  0.0014  0.0104  0.0000  0.0000  0.0000  0.0000  0.0000 </r>
        <r>  0.0047  0.0123  0.0374  0.1101  0.0000  0.0000  0.0000  0.0000  0.0000 </r>
        <r>  0.0052  0.0127  0.0360  0.1067  0.0000  0.0000  0.0000  0.0000  0.0000 </r>
       </set>
       <set comment="band 5">
        <r>  0.0177  0.0312  0.0001  0.0144  0.0000  0.0000  0.0000  0.0000  0.0000 </r>
        <r>  0.0132  0.0209  0.0004  0.0254  0.0000  0.0000  0.0000  0.0000  0.0000 </r>
        <r>  0.0009  0.1402  0.0222  0.0241  0.0000  0.0000  0.0000  0.0000  0.0000 </r>
        <r>  0.0008  0.1404  0.0221  0.0226  0.0000  0.0000  0.0000  0.0000  0.0000 </r>
       </set>
       <set comment="band 6">
        <r>  0.0064  0.0216  0.0003  0.0231  0.0000  0.0000  0.0000  0.0000  0.0000 </r>
        <r>  0.0086  0.0300  0.0003  0.0145  0.0000  0.0000  0.0000  0.0000  0.0000 </r>
        <r>  0.0013  0.1408  0.0152  0.0424  0.0000  0.0000  0.0000  0.0000  0.0000 </r>
        <r>  0.0013  0.1404  0.0162  0.0459  0.0000  0.0000  0.0000  0.0000  0.0000 </r>
       </set>
       <set comment="band 7">
        <r>  0.0085  0.0002  0.0315  0.0073  0.0000  0.0000  0.0000  0.0000  0.0000 </r>
        <r>  0.0079  0.0042  0.0313  0.0034  0.0000  0.0000  0.0000  0.0000  0.0000 </r>
        <r>  0.0015  0.0481  0.1699  0.0406  0.0000  0.0000  0.0000  0.0000  0.0000 </r>
        <r>  0.0015  0.0437  0.1691  0.0421  0.0000  0.0000  0.0000  0.0000  0.0000 </r>
       </set>
       <set comment="band 8">
        <r>  0.0015  0.0039  0.0295  0.0037  0.0000  0.0000  0.0000  0.0000  0.0000 </r>
        <r>  0.0016  0.0005  0.0297  0.0067  0.0000  0.0000  0.0000  0.0000  0.0000 </r>
        <r>  0.0000  0.0408  0.1924  0.0423  0.0000  0.0000  0.0000  0.0000  0.0000 </r>
        <r>  0.0000  0.0456  0.1925  0.0389  0.0000  0.0000  0.0000  0.0000  0.0000 </r>
       </set>
       <set comment="band 9">
        <r>  0.0122  0.0016  0.0143  0.0210  0.0000  0.0000  0.0000  0.0000  0.0000 </r>
        <r>  0.0144  0.0161  0.0132  0.0097  0.0000  0.0000  0.0000  0.0000  0.0000 </r>
        <r>  0.0190  0.0295  0.0036  0.0199  0.0000  0.0000  0.0000  0.0000  0.0000 </r>
        <r>  0.0178  0.0449  0.0065  0.0158  0.0000  0.0000  0.0000  0.0000  0.0000 </r>
       </set>
       <set comment="band 10">
        <r>  0.0075  0.0129  0.0236  0.0077  0.0000  0.0000  0.0000  0.0000  0.0000 </r>
        <r>  0.0115  0.0001  0.0205  0.0158  0.0000  0.0000  0.0000  0.0000  0.0000 </r>
        <r>  0.0206  0.0532  0.0069  0.0298  0.0000  0.0000  0.0000  0.0000  0.0000 </r>
        <r>  0.0242  0.0232  0.0040  0.0408  0.0000  0.0000  0.0000  0.0000  0.0000 </r>
       </set>
       <set comment="band 11">
        <r>  0.0305  0.0137  0.0115  0.0052  0.0000  0.0000  0.0000  0.0000  0.0000 </r>
        <r>  0.0166  0.0014  0.0508  0.0158  0.0000  0.0000  0.0000  0.0000  0.0000 </r>
        <r>  0.0186  0.0274  0.0015  0.0024  0.0000  0.0000  0.0000  0.0000  0.0000 </r>
        <r>  0.0186  0.0456  0.0004  0.0374  0.0000  0.0000  0.0000  0.0000  0.0000 </r>
       </set>
       <set comment="band 12">
        <r>  0.0155  0.0021  0.0559  0.0082  0.0000  0.0000  0.0000  0.0000  0.0000 </r>
        <r>  0.0251  0.0100  0.0196  0.0051  0.0000  0.0000  0.0000  0.0000  0.0000 </r>
        <r>  0.0170  0.0193  0.0080  0.0604  0.0000  0.0000  0.0000  0.0000  0.0000 </r>
        <r>  0.0123  0.0220  0.0094  0.0058  0.0000  0.0000  0.0000  0.0000  0.0000 </r>
       </set>
       <set comment="band 13">
        <r>  0.1798  0.0130  0.0071  0.0008  0.0000  0.0000  0.0000  0.0000  0.0000 </r>
        <r>  0.0458  0.0031  0.0107  0.0028  0.0000  0.0000  0.0000  0.0000  0.0000 </r>
        <r>  0.0027  0.0357  0.0536  0.0317  0.0000  0.0000  0.0000  0.0000  0.0000 </r>
        <r>  0.0172  0.0596  0.0134  0.0743  0.0000  0.0000  0.0000  0.0000  0.0000 </r>
       </set>
       <set comment="band 14">
        <r>  0.0423  0.0025  0.0074  0.0060  0.0000  0.0000  0.0000  0.0000  0.0000 </r>
        <r>  0.1895  0.0130  0.0039  0.0005  0.0000  0.0000  0.0000  0.0000  0.0000 </r>
        <r>  0.0157  0.0496  0.0130  0.1030  0.0000  0.0000  0.0000  0.0000  0.0000 </r>
        <r>  0.0022  0.0070  0.0595  0.0776  0.0000  0.0000  0.0000  0.0000  0.0000 </r>
       </set>
       <set comment="band 15">
        <r>  0.0287  0.0292  0.0012  0.0035  0.0000  0.0000  0.0000  0.0000  0.0000 </r>
        <r>  0.0031  0.0228  0.0012  0.0239  0.0000  0.0000  0.0000  0.0000  0.0000 </r>
        <r>  0.0029  0.0126  0.0182  0.0461  0.0000  0.0000  0.0000  0.0000  0.0000 </r>
        <r>  0.0043  0.0375  0.0023  0.0434  0.0000  0.0000  0.0000  0.0000  0.0000 </r>
       </set>
       <set comment="band 16">
        <r>  0.0019  0.0513  0.0021  0.0348  0.0000  0.0000  0.0000  0.0000  0.0000 </r>
        <r>  0.0132  0.0561  0.0053  0.0026  0.0000  0.0000  0.0000  0.0000  0.0000 </r>
        <r>  0.0067  0.0221  0.0016  0.0161  0.0000  0.0000  0.0000  0.0000  0.0000 </r>
        <r>  0.0067  0.0066  0.0188  0.0191  0.0000  0.0000  0.0000  0.0000  0.0000 </r>
       </set>
      </set>
      <set comment="kpoint 36">
       <set comment="band 1">
        <r>  0.0064  0.0040  0.0069  0.0040  0.0000  0.0000  0.0000  0.0000  0.0000 </r>
        <r>  0.0020  0.0130  0.0022  0.0130  0.0000  0.0000  0.0000  0.0000  0.0000 </r>
        <r>  0.4707  0.0000  0.0000  0.0000  0.0000  0.0000  0.0000  0.0000  0.0000 </r>
        <r>  0.1460  0.0001  0.0000  0.0001  0.0000  0.0000  0.0000  0.0000  0.0000 </r>
       </set>
       <set comment="band 2">
        <r>  0.0020  0.0130  0.0022  0.0130  0.0000  0.0000  0.0000  0.0000  0.0000 </r>
        <r>  0.0064  0.0040  0.0069  0.0040  0.0000  0.0000  0.0000  0.0000  0.0000 </r>
        <r>  0.1460  0.0001  0.0000  0.0001  0.0000  0.0000  0.0000  0.0000  0.0000 </r>
        <r>  0.4707  0.0000  0.0000  0.0000  0.0000  0.0000  0.0000  0.0000  0.0000 </r>
       </set>
       <set comment="band 3">
        <r>  0.1290  0.0018  0.0027  0.0018  0.0000  0.0000  0.0000  0.0000  0.0000 </r>
        <r>  0.0515  0.0044  0.0011  0.0044  0.0000  0.0000  0.0000  0.0000  0.0000 </r>
        <r>  0.0009  0.0326  0.0695  0.0326  0.0000  0.0000  0.0000  0.0000  0.0000 </r>
        <r>  0.0004  0.0817  0.0278  0.0818  0.0000  0.0000  0.0000  0.0000  0.0000 </r>
       </set>
       <set comment="band 4">
        <r>  0.0515  0.0044  0.0011  0.0044  0.0000  0.0000  0.0000  0.0000  0.0000 </r>
        <r>  0.1290  0.0018  0.0027  0.0018  0.0000  0.0000  0.0000  0.0000  0.0000 </r>
        <r>  0.0004  0.0817  0.0278  0.0818  0.0000  0.0000  0.0000  0.0000  0.0000 </r>
        <r>  0.0009  0.0326  0.0695  0.0326  0.0000  0.0000  0.0000  0.0000  0.0000 </r>
       </set>
       <set comment="band 5">
        <r>  0.0000  0.0282  0.0000  0.0282  0.0000  0.0000  0.0000  0.0000  0.0000 </r>
        <r>  0.0000  0.0282  0.0000  0.0282  0.0000  0.0000  0.0000  0.0000  0.0000 </r>
        <r>  0.0000  0.0829  0.0000  0.0829  0.0000  0.0000  0.0000  0.0000  0.0000 </r>
        <r>  0.0000  0.0829  0.0000  0.0829  0.0000  0.0000  0.0000  0.0000  0.0000 </r>
       </set>
       <set comment="band 6">
        <r>  0.0000  0.0256  0.0000  0.0256  0.0000  0.0000  0.0000  0.0000  0.0000 </r>
        <r>  0.0000  0.0256  0.0000  0.0256  0.0000  0.0000  0.0000  0.0000  0.0000 </r>
        <r>  0.0000  0.0916  0.0000  0.0916  0.0000  0.0000  0.0000  0.0000  0.0000 </r>
        <r>  0.0000  0.0916  0.0000  0.0916  0.0000  0.0000  0.0000  0.0000  0.0000 </r>
       </set>
       <set comment="band 7">
        <r>  0.0053  0.0022  0.0419  0.0022  0.0000  0.0000  0.0000  0.0000  0.0000 </r>
        <r>  0.0027  0.0043  0.0214  0.0043  0.0000  0.0000  0.0000  0.0000  0.0000 </r>
        <r>  0.0007  0.0266  0.2537  0.0266  0.0000  0.0000  0.0000  0.0000  0.0000 </r>
        <r>  0.0003  0.0520  0.1298  0.0520  0.0000  0.0000  0.0000  0.0000  0.0000 </r>
       </set>
       <set comment="band 8">
        <r>  0.0027  0.0043  0.0214  0.0043  0.0000  0.0000  0.0000  0.0000  0.0000 </r>
        <r>  0.0053  0.0022  0.0419  0.0022  0.0000  0.0000  0.0000  0.0000  0.0000 </r>
        <r>  0.0003  0.0520  0.1298  0.0520  0.0000  0.0000  0.0000  0.0000  0.0000 </r>
        <r>  0.0007  0.0266  0.2537  0.0266  0.0000  0.0000  0.0000  0.0000  0.0000 </r>
       </set>
       <set comment="band 9">
        <r>  0.0000  0.0155  0.0000  0.0155  0.0000  0.0000  0.0000  0.0000  0.0000 </r>
        <r>  0.0000  0.0155  0.0000  0.0155  0.0000  0.0000  0.0000  0.0000  0.0000 </r>
        <r>  0.0000  0.0436  0.0000  0.0436  0.0000  0.0000  0.0000  0.0000  0.0000 </r>
        <r>  0.0000  0.0436  0.0000  0.0436  0.0000  0.0000  0.0000  0.0000  0.0000 </r>
       </set>
       <set comment="band 10">
        <r>  0.0000  0.0067  0.0000  0.0067  0.0000  0.0000  0.0000  0.0000  0.0000 </r>
        <r>  0.0000  0.0067  0.0000  0.0067  0.0000  0.0000  0.0000  0.0000  0.0000 </r>
        <r>  0.0000  0.0713  0.0000  0.0713  0.0000  0.0000  0.0000  0.0000  0.0000 </r>
        <r>  0.0000  0.0713  0.0000  0.0713  0.0000  0.0000  0.0000  0.0000  0.0000 </r>
       </set>
       <set comment="band 11">
        <r>  0.0431  0.0044  0.0650  0.0044  0.0000  0.0000  0.0000  0.0000  0.0000 </r>
        <r>  0.0228  0.0082  0.0344  0.0083  0.0000  0.0000  0.0000  0.0000  0.0000 </r>
        <r>  0.0484  0.0041  0.0060  0.0041  0.0000  0.0000  0.0000  0.0000  0.0000 </r>
        <r>  0.0256  0.0078  0.0032  0.0078  0.0000  0.0000  0.0000  0.0000  0.0000 </r>
       </set>
       <set comment="band 12">
        <r>  0.0228  0.0083  0.0344  0.0082  0.0000  0.0000  0.0000  0.0000  0.0000 </r>
        <r>  0.0431  0.0044  0.0650  0.0044  0.0000  0.0000  0.0000  0.0000  0.0000 </r>
        <r>  0.0256  0.0078  0.0032  0.0078  0.0000  0.0000  0.0000  0.0000  0.0000 </r>
        <r>  0.0484  0.0041  0.0060  0.0041  0.0000  0.0000  0.0000  0.0000  0.0000 </r>
       </set>
       <set comment="band 13">
        <r>  0.1859  0.0008  0.0106  0.0008  0.0000  0.0000  0.0000  0.0000  0.0000 </r>
        <r>  0.0583  0.0027  0.0033  0.0027  0.0000  0.0000  0.0000  0.0000  0.0000 </r>
        <r>  0.0067  0.0363  0.0597  0.0363  0.0000  0.0000  0.0000  0.0000  0.0000 </r>
        <r>  0.0021  0.1158  0.0187  0.1158  0.0000  0.0000  0.0000  0.0000  0.0000 </r>
       </set>
       <set comment="band 14">
        <r>  0.0583  0.0027  0.0033  0.0027  0.0000  0.0000  0.0000  0.0000  0.0000 </r>
        <r>  0.1859  0.0008  0.0106  0.0008  0.0000  0.0000  0.0000  0.0000  0.0000 </r>
        <r>  0.0021  0.1158  0.0187  0.1158  0.0000  0.0000  0.0000  0.0000  0.0000 </r>
        <r>  0.0067  0.0363  0.0597  0.0363  0.0000  0.0000  0.0000  0.0000  0.0000 </r>
       </set>
       <set comment="band 15">
        <r>  0.0000  0.0080  0.0000  0.0080  0.0000  0.0000  0.0000  0.0000  0.0000 </r>
        <r>  0.0000  0.0080  0.0000  0.0080  0.0000  0.0000  0.0000  0.0000  0.0000 </r>
        <r>  0.0000  0.0280  0.0000  0.0280  0.0000  0.0000  0.0000  0.0000  0.0000 </r>
        <r>  0.0000  0.0280  0.0000  0.0280  0.0000  0.0000  0.0000  0.0000  0.0000 </r>
       </set>
       <set comment="band 16">
        <r>  0.0000  0.0154  0.0000  0.0154  0.0000  0.0000  0.0000  0.0000  0.0000 </r>
        <r>  0.0000  0.0154  0.0000  0.0154  0.0000  0.0000  0.0000  0.0000  0.0000 </r>
        <r>  0.0000  0.0055  0.0000  0.0055  0.0000  0.0000  0.0000  0.0000  0.0000 </r>
        <r>  0.0000  0.0055  0.0000  0.0055  0.0000  0.0000  0.0000  0.0000  0.0000 </r>
       </set>
      </set>
     </set>
    </set>
   </array>
  </projected>
 </calculation>
 <structure name="finalpos" >
  <crystal>
   <varray name="basis" >
    <v>       1.56502200      -2.71069800       0.00000000 </v>
    <v>       1.56502200       2.71069800       0.00000000 </v>
    <v>       0.00000000       0.00000000       5.02125300 </v>
   </varray>
   <i name="volume">     42.60334334 </i>
   <varray name="rec_basis" >
    <v>       0.31948433      -0.18445434       0.00000000 </v>
    <v>       0.31948433       0.18445434      -0.00000000 </v>
    <v>      -0.00000000       0.00000000       0.19915348 </v>
   </varray>
  </crystal>
  <varray name="positions" >
   <v>       0.33333300       0.66666700       0.50066900 </v>
   <v>       0.66666700       0.33333300       0.00066900 </v>
   <v>       0.33333300       0.66666700       0.11933100 </v>
   <v>       0.66666700       0.33333300       0.61933100 </v>
  </varray>
 </structure>
</modeling>
