LAMMPS data file via write_data, version 13 Jan 2016, timestep = 243

1152 atoms
1 atom types

2.2977309074071378e-01 3.4135616199259289e+01 xlo xhi
1.6780878761995391e-01 2.6696851798380063e+01 ylo yhi
-9.0698458717456236e-03 4.6636066137871815e+01 zlo zhi
1.1312021948076781e+01 0.0000000000000000e+00 0.0000000000000000e+00 xy xz yz

Masses

1 26.982

Atoms # charge

1 1 0.0000000000000000e+00 2.8495602479870008e+01 2.6169568196173829e+00 1.3858299845520325e+01 0 0 0
2 1 0.0000000000000000e+00 3.4151613453908496e+01 1.5881478324997442e+01 1.3858299845520330e+01 0 0 0
3 1 0.0000000000000000e+00 5.8917070741909585e+00 2.6169568196173847e+00 1.3858299845520330e+01 0 0 0
4 1 0.0000000000000000e+00 1.1547718048229445e+01 1.5881478324997442e+01 1.3858299845520330e+01 0 0 0
5 1 0.0000000000000000e+00 1.7193654777030485e+01 2.6169568196173874e+00 1.3858299845520330e+01 0 0 0
6 1 0.0000000000000000e+00 2.2849665751068976e+01 1.5881478324997445e+01 1.3858299845520330e+01 0 0 0
7 1 0.0000000000000000e+00 2.2821777534295162e+01 2.6256362850687589e+00 1.3867341912344328e+01 0 0 0
8 1 0.0000000000000000e+00 2.8477788508333646e+01 1.5890157790448816e+01 1.3867341912344328e+01 0 0 0
9 1 0.0000000000000000e+00 3.4123725237134678e+01 2.6256362850687540e+00 1.3867341912344324e+01 0 0 0
10 1 0.0000000000000000e+00 3.9779736211173166e+01 1.5890157790448814e+01 1.3867341912344328e+01 0 0 0
11 1 0.0000000000000000e+00 1.1519829831455633e+01 2.6256362850687585e+00 1.3867341912344330e+01 0 0 0
12 1 0.0000000000000000e+00 1.7175840805494122e+01 1.5890157790448820e+01 1.3867341912344328e+01 0 0 0
13 1 0.0000000000000000e+00 3.4124446578805610e+01 1.9439995582638030e+01 1.5590114172340822e+01 0 0 0
14 1 0.0000000000000000e+00 2.8468435604767119e+01 6.1754740772579799e+00 1.5590114172340813e+01 0 0 0
15 1 0.0000000000000000e+00 1.1520551173126560e+01 1.9439995582638037e+01 1.5590114172340819e+01 0 0 0
16 1 0.0000000000000000e+00 5.8645401990880766e+00 6.1754740772579790e+00 1.5590114172340813e+01 0 0 0
17 1 0.0000000000000000e+00 2.2822498875966087e+01 1.9439995582638041e+01 1.5590114172340819e+01 0 0 0
18 1 0.0000000000000000e+00 1.7166487901927599e+01 6.1754740772579817e+00 1.5590114172340813e+01 0 0 0
19 1 0.0000000000000000e+00 3.6964940632154189e+01 2.4277954053611438e+01 1.4667025864896242e+01 0 0 0
20 1 0.0000000000000000e+00 3.1308929658115812e+01 1.1013432548231384e+01 1.4667025864896239e+01 0 0 0
21 1 0.0000000000000000e+00 1.4361045226475150e+01 2.4277954053611438e+01 1.4667025864896239e+01 0 0 0
22 1 0.0000000000000000e+00 8.7050342524367572e+00 1.1013432548231382e+01 1.4667025864896239e+01 0 0 0
23 1 0.0000000000000000e+00 2.5662992929314676e+01 2.4277954053611442e+01 1.4667025864896244e+01 0 0 0
24 1 0.0000000000000000e+00 2.0006981955276281e+01 1.1013432548231389e+01 1.4667025864896239e+01 0 0 0
25 1 0.0000000000000000e+00 3.1324495568743796e+01 2.0686104095134041e+01 1.3180998876056165e+01 0 0 0
26 1 0.0000000000000000e+00 2.5668484594705287e+01 7.4215825897539869e+00 1.3180998876056165e+01 0 0 0
27 1 0.0000000000000000e+00 4.2626443271583319e+01 2.0686104095134041e+01 1.3180998876056165e+01 0 0 0
28 1 0.0000000000000000e+00 3.6970432297544811e+01 7.4215825897539824e+00 1.3180998876056165e+01 0 0 0
29 1 0.0000000000000000e+00 2.0022547865904276e+01 2.0686104095134045e+01 1.3180998876056165e+01 0 0 0
30 1 0.0000000000000000e+00 1.4366536891865767e+01 7.4215825897539869e+00 1.3180998876056165e+01 0 0 0
31 1 0.0000000000000000e+00 3.1327809586600132e+01 2.4242394461073065e+01 1.4622520997330049e+01 0 0 0
32 1 0.0000000000000000e+00 2.5671798612561734e+01 1.0977872955693012e+01 1.4622520997330044e+01 0 0 0
33 1 0.0000000000000000e+00 4.2629757289439645e+01 2.4242394461073062e+01 1.4622520997330049e+01 0 0 0
34 1 0.0000000000000000e+00 3.6973746315401257e+01 1.0977872955693007e+01 1.4622520997330044e+01 0 0 0
35 1 0.0000000000000000e+00 2.0025861883760602e+01 2.4242394461073065e+01 1.4622520997330049e+01 0 0 0
36 1 0.0000000000000000e+00 1.4369850909722212e+01 1.0977872955693011e+01 1.4622520997330048e+01 0 0 0
37 1 0.0000000000000000e+00 3.2724643361871934e+01 5.1043522389855776e+00 1.3534390980621053e+01 0 0 0
38 1 0.0000000000000000e+00 3.8380654335910435e+01 1.8368873744365633e+01 1.3534390980621056e+01 0 0 0
39 1 0.0000000000000000e+00 1.0120747956192886e+01 5.1043522389855811e+00 1.3534390980621056e+01 0 0 0
40 1 0.0000000000000000e+00 1.5776758930231384e+01 1.8368873744365640e+01 1.3534390980621056e+01 0 0 0
41 1 0.0000000000000000e+00 2.1422695659032410e+01 5.1043522389855820e+00 1.3534390980621053e+01 0 0 0
42 1 0.0000000000000000e+00 2.7078706633070922e+01 1.8368873744365640e+01 1.3534390980621056e+01 0 0 0
43 1 0.0000000000000000e+00 2.7073801961910888e+01 5.0030278633812184e+00 1.3482890873134087e+01 0 0 0
44 1 0.0000000000000000e+00 3.2729812935949390e+01 1.8267549368761273e+01 1.3482890873134092e+01 0 0 0
45 1 0.0000000000000000e+00 4.4699065562318347e+00 5.0030278633812140e+00 1.3482890873134087e+01 0 0 0
46 1 0.0000000000000000e+00 1.0125917530270339e+01 1.8267549368761273e+01 1.3482890873134091e+01 0 0 0
47 1 0.0000000000000000e+00 1.5771854259071359e+01 5.0030278633812175e+00 1.3482890873134091e+01 0 0 0
48 1 0.0000000000000000e+00 2.1427865233109866e+01 1.8267549368761280e+01 1.3482890873134092e+01 0 0 0
49 1 0.0000000000000000e+00 3.8382175262442658e+01 2.1788704510555252e+01 1.4979126971306423e+01 0 0 0
50 1 0.0000000000000000e+00 3.2726164288404213e+01 8.5241830051751979e+00 1.4979126971306423e+01 0 0 0
51 1 0.0000000000000000e+00 1.5778279856763611e+01 2.1788704510555256e+01 1.4979126971306423e+01 0 0 0
52 1 0.0000000000000000e+00 1.0122268882725161e+01 8.5241830051751997e+00 1.4979126971306423e+01 0 0 0
53 1 0.0000000000000000e+00 2.7080227559603134e+01 2.1788704510555263e+01 1.4979126971306426e+01 0 0 0
54 1 0.0000000000000000e+00 2.1424216585564686e+01 8.5241830051752050e+00 1.4979126971306421e+01 0 0 0
55 1 0.0000000000000000e+00 2.9905595837093966e+01 1.9091451029544207e-01 1.4264548931307750e+01 0 1 0
56 1 0.0000000000000000e+00 3.5561606811132414e+01 1.3455436015675501e+01 1.4264548931307750e+01 0 0 0
57 1 0.0000000000000000e+00 7.3017004314149148e+00 1.9091451029544654e-01 1.4264548931307754e+01 0 1 0
58 1 0.0000000000000000e+00 1.2957711405453363e+01 1.3455436015675502e+01 1.4264548931307750e+01 0 0 0
59 1 0.0000000000000000e+00 1.8603648134254438e+01 1.9091451029544595e-01 1.4264548931307756e+01 0 1 0
60 1 0.0000000000000000e+00 2.4259659108292883e+01 1.3455436015675506e+01 1.4264548931307750e+01 0 0 0
61 1 0.0000000000000000e+00 3.2731183967699330e+01 2.1876376919166621e+01 1.5179885760055999e+01 0 0 0
62 1 0.0000000000000000e+00 2.7075172993660882e+01 8.6118554137865608e+00 1.5179885760055992e+01 0 0 0
63 1 0.0000000000000000e+00 1.0127288562020286e+01 2.1876376919166617e+01 1.5179885760055994e+01 0 0 0
64 1 0.0000000000000000e+00 4.4712775879818336e+00 8.6118554137865573e+00 1.5179885760055994e+01 0 0 0
65 1 0.0000000000000000e+00 2.1429236264859817e+01 2.1876376919166621e+01 1.5179885760055997e+01 0 0 0
66 1 0.0000000000000000e+00 1.5773225290821356e+01 8.6118554137865662e+00 1.5179885760055994e+01 0 0 0
67 1 0.0000000000000000e+00 2.4238846430512393e+01 1.9097588538250018e-01 1.4264497672580932e+01 0 0 0
68 1 0.0000000000000000e+00 2.9894857404550841e+01 1.3455497390762556e+01 1.4264497672580932e+01 0 0 0
69 1 0.0000000000000000e+00 1.6349510248333350e+00 1.9097588538249685e-01 1.4264497672580935e+01 0 0 0
70 1 0.0000000000000000e+00 7.2909619988717846e+00 1.3455497390762549e+01 1.4264497672580932e+01 0 0 0
71 1 0.0000000000000000e+00 1.2936898727672867e+01 1.9097588538250193e-01 1.4264497672580937e+01 0 0 0
72 1 0.0000000000000000e+00 1.8592909701711314e+01 1.3455497390762558e+01 1.4264497672580932e+01 0 0 0
73 1 0.0000000000000000e+00 2.9887613816012490e+01 5.0330680737690319e+00 1.3509106052156037e+01 0 0 0
74 1 0.0000000000000000e+00 3.5543624790050991e+01 1.8297589579149090e+01 1.3509106052156042e+01 0 0 0
75 1 0.0000000000000000e+00 7.2837184103334414e+00 5.0330680737690319e+00 1.3509106052156040e+01 0 0 0
76 1 0.0000000000000000e+00 1.2939729384371944e+01 1.8297589579149090e+01 1.3509106052156040e+01 0 0 0
77 1 0.0000000000000000e+00 1.8585666113172966e+01 5.0330680737690363e+00 1.3509106052156037e+01 0 0 0
78 1 0.0000000000000000e+00 2.4241677087211475e+01 1.8297589579149097e+01 1.3509106052156042e+01 0 0 0
79 1 0.0000000000000000e+00 2.4259878707998844e+01 5.0335566566446586e+00 1.3509056468661262e+01 0 0 0
80 1 0.0000000000000000e+00 2.9915889682037342e+01 1.8298078162024719e+01 1.3509056468661267e+01 0 0 0
81 1 0.0000000000000000e+00 3.5561826410838364e+01 5.0335566566446577e+00 1.3509056468661262e+01 0 0 0
82 1 0.0000000000000000e+00 4.1217837384876859e+01 1.8298078162024716e+01 1.3509056468661266e+01 0 0 0
83 1 0.0000000000000000e+00 1.2957931005159315e+01 5.0335566566446612e+00 1.3509056468661266e+01 0 0 0
84 1 0.0000000000000000e+00 1.8613941979197815e+01 1.8298078162024723e+01 1.3509056468661267e+01 0 0 0
85 1 0.0000000000000000e+00 3.5578573709044328e+01 2.1852535379232791e+01 1.5114521380851217e+01 0 0 0
86 1 0.0000000000000000e+00 2.9922562735005858e+01 8.5880138738527290e+00 1.5114521380851190e+01 0 0 0
87 1 0.0000000000000000e+00 1.2974678303365266e+01 2.1852535379232787e+01 1.5114521380851214e+01 0 0 0
88 1 0.0000000000000000e+00 7.3186673293268099e+00 8.5880138738527272e+00 1.5114521380851190e+01 0 0 0
89 1 0.0000000000000000e+00 2.4276626006204786e+01 2.1852535379232794e+01 1.5114521380851217e+01 0 0 0
90 1 0.0000000000000000e+00 1.8620615032166334e+01 8.5880138738527343e+00 1.5114521380851190e+01 0 0 0
91 1 0.0000000000000000e+00 2.7072202441973406e+01 1.9419062588168517e-01 1.4263164381392818e+01 0 1 0
92 1 0.0000000000000000e+00 3.2728213416011862e+01 1.3458712131261743e+01 1.4263164381392819e+01 0 0 0
93 1 0.0000000000000000e+00 4.4683070362943589e+00 1.9419062588168626e-01 1.4263164381392819e+01 0 1 0
94 1 0.0000000000000000e+00 1.0124318010332807e+01 1.3458712131261743e+01 1.4263164381392818e+01 0 0 0
95 1 0.0000000000000000e+00 1.5770254739133886e+01 1.9419062588169148e-01 1.4263164381392819e+01 0 1 0
96 1 0.0000000000000000e+00 2.1426265713172334e+01 1.3458712131261748e+01 1.4263164381392818e+01 0 0 0
97 1 0.0000000000000000e+00 2.9883805028462980e+01 2.1852598528880819e+01 1.5114920210891231e+01 0 0 0
98 1 0.0000000000000000e+00 2.4227794054424528e+01 8.5880770235007766e+00 1.5114920210891238e+01 0 0 0
99 1 0.0000000000000000e+00 4.1185752731302507e+01 2.1852598528880815e+01 1.5114920210891226e+01 0 0 0
100 1 0.0000000000000000e+00 3.5529741757264063e+01 8.5880770235007660e+00 1.5114920210891244e+01 0 0 0
101 1 0.0000000000000000e+00 1.8581857325623453e+01 2.1852598528880819e+01 1.5114920210891228e+01 0 0 0
102 1 0.0000000000000000e+00 1.2925846351585001e+01 8.5880770235007713e+00 1.5114920210891245e+01 0 0 0
103 1 0.0000000000000000e+00 2.1421265429197735e+01 1.8624889499163300e-01 1.4265809679446932e+01 0 0 0
104 1 0.0000000000000000e+00 2.7077276403236191e+01 1.3450770400371692e+01 1.4265809679446926e+01 0 0 0
105 1 0.0000000000000000e+00 3.2723213132037273e+01 1.8624889499163133e-01 1.4265809679446930e+01 0 0 0
106 1 0.0000000000000000e+00 3.8379224106075704e+01 1.3450770400371686e+01 1.4265809679446932e+01 0 0 0
107 1 0.0000000000000000e+00 1.0119317726358211e+01 1.8624889499163505e-01 1.4265809679446932e+01 0 0 0
108 1 0.0000000000000000e+00 1.5775328700396660e+01 1.3450770400371692e+01 1.4265809679446930e+01 0 0 0
109 1 0.0000000000000000e+00 3.1324356203983164e+01 2.6254651343243500e+00 1.3867398696083702e+01 0 0 0
110 1 0.0000000000000000e+00 3.6980367178021645e+01 1.5889986639704400e+01 1.3867398696083704e+01 0 0 0
111 1 0.0000000000000000e+00 8.7204607983041136e+00 2.6254651343243518e+00 1.3867398696083702e+01 0 0 0
112 1 0.0000000000000000e+00 1.4376471772342599e+01 1.5889986639704411e+01 1.3867398696083702e+01 0 0 0
113 1 0.0000000000000000e+00 2.0022408501143637e+01 2.6254651343243522e+00 1.3867398696083699e+01 0 0 0
114 1 0.0000000000000000e+00 2.5678419475182128e+01 1.5889986639704411e+01 1.3867398696083702e+01 0 0 0
115 1 0.0000000000000000e+00 2.5650456990334632e+01 2.6171071851832726e+00 1.3858256258992034e+01 0 0 0
116 1 0.0000000000000000e+00 3.1306467964373130e+01 1.5881628690563328e+01 1.3858256258992038e+01 0 0 0
117 1 0.0000000000000000e+00 3.0465615846555893e+00 2.6171071851832699e+00 1.3858256258992038e+01 0 0 0
118 1 0.0000000000000000e+00 8.7025725586940741e+00 1.5881628690563327e+01 1.3858256258992034e+01 0 0 0
119 1 0.0000000000000000e+00 1.4348509287495117e+01 2.6171071851832739e+00 1.3858256258992039e+01 0 0 0
120 1 0.0000000000000000e+00 2.0004520261533600e+01 1.5881628690563335e+01 1.3858256258992038e+01 0 0 0
121 1 0.0000000000000000e+00 3.1285837452551672e+01 6.1956390335577955e+00 1.5557899194919573e+01 0 0 0
122 1 0.0000000000000000e+00 3.6941848426590148e+01 1.9460160538937853e+01 1.5557899194919575e+01 0 0 0
123 1 0.0000000000000000e+00 8.6819420468726136e+00 6.1956390335577982e+00 1.5557899194919575e+01 0 0 0
124 1 0.0000000000000000e+00 1.4337953020911099e+01 1.9460160538937856e+01 1.5557899194919575e+01 0 0 0
125 1 0.0000000000000000e+00 1.9983889749712141e+01 6.1956390335578035e+00 1.5557899194919573e+01 0 0 0
126 1 0.0000000000000000e+00 2.5639900723750614e+01 1.9460160538937860e+01 1.5557899194919575e+01 0 0 0
127 1 0.0000000000000000e+00 3.9801567805514729e+01 2.4277923519326109e+01 1.4666978624770861e+01 0 0 0
128 1 0.0000000000000000e+00 3.4145556831476348e+01 1.1013402013946051e+01 1.4666978624770856e+01 0 0 0
129 1 0.0000000000000000e+00 1.7197672399835685e+01 2.4277923519326109e+01 1.4666978624770861e+01 0 0 0
130 1 0.0000000000000000e+00 1.1541661425797294e+01 1.1013402013946052e+01 1.4666978624770856e+01 0 0 0
131 1 0.0000000000000000e+00 2.8499620102675209e+01 2.4277923519326112e+01 1.4666978624770863e+01 0 0 0
132 1 0.0000000000000000e+00 2.2843609128636817e+01 1.1013402013946056e+01 1.4666978624770856e+01 0 0 0
133 1 0.0000000000000000e+00 3.4136658161862449e+01 2.0685854396248097e+01 1.3180927482350903e+01 0 0 0
134 1 0.0000000000000000e+00 2.8480647187823944e+01 7.4213328908680340e+00 1.3180927482350892e+01 0 0 0
135 1 0.0000000000000000e+00 1.1532762756183391e+01 2.0685854396248097e+01 1.3180927482350903e+01 0 0 0
136 1 0.0000000000000000e+00 5.8767517821448907e+00 7.4213328908680323e+00 1.3180927482350896e+01 0 0 0
137 1 0.0000000000000000e+00 2.2834710459022929e+01 2.0685854396248104e+01 1.3180927482350903e+01 0 0 0
138 1 0.0000000000000000e+00 1.7178699484984413e+01 7.4213328908680367e+00 1.3180927482350896e+01 0 0 0
139 1 0.0000000000000000e+00 3.4136662004224128e+01 2.4242441509847882e+01 1.4622563082494786e+01 0 0 0
140 1 0.0000000000000000e+00 2.8480651030185740e+01 1.0977920004467832e+01 1.4622563082494784e+01 0 0 0
141 1 0.0000000000000000e+00 1.1532766598545075e+01 2.4242441509847882e+01 1.4622563082494784e+01 0 0 0
142 1 0.0000000000000000e+00 5.8767556245066794e+00 1.0977920004467828e+01 1.4622563082494784e+01 0 0 0
143 1 0.0000000000000000e+00 2.2834714301384608e+01 2.4242441509847886e+01 1.4622563082494786e+01 0 0 0
144 1 0.0000000000000000e+00 1.7178703327346209e+01 1.0977920004467833e+01 1.4622563082494784e+01 0 0 0
145 1 0.0000000000000000e+00 2.5659226558182329e+01 1.3821590173349827e+00 1.6351943797401457e+01 0 0 0
146 1 0.0000000000000000e+00 3.1315237532220788e+01 1.4646680522715034e+01 1.6351943797401457e+01 0 0 0
147 1 0.0000000000000000e+00 3.0553311525032716e+00 1.3821590173349823e+00 1.6351943797401457e+01 0 0 0
148 1 0.0000000000000000e+00 8.7113421265417266e+00 1.4646680522715037e+01 1.6351943797401454e+01 0 0 0
149 1 0.0000000000000000e+00 1.4357278855342800e+01 1.3821590173349860e+00 1.6351943797401461e+01 0 0 0
150 1 0.0000000000000000e+00 2.0013289829381254e+01 1.4646680522715043e+01 1.6351943797401454e+01 0 0 0
151 1 0.0000000000000000e+00 2.0009995793732486e+01 1.3834359822917910e+00 1.6355169063867653e+01 0 0 0
152 1 0.0000000000000000e+00 2.5666006767770938e+01 1.4647957487671848e+01 1.6355169063867649e+01 0 0 0
153 1 0.0000000000000000e+00 3.1311943496572002e+01 1.3834359822917899e+00 1.6355169063867649e+01 0 0 0
154 1 0.0000000000000000e+00 3.6967954470610479e+01 1.4647957487671842e+01 1.6355169063867649e+01 0 0 0
155 1 0.0000000000000000e+00 8.7080480908929587e+00 1.3834359822917901e+00 1.6355169063867653e+01 0 0 0
156 1 0.0000000000000000e+00 1.4364059064931416e+01 1.4647957487671848e+01 1.6355169063867649e+01 0 0 0
157 1 0.0000000000000000e+00 3.1315080269383756e+01 1.8266859478999727e+01 1.8099304528793752e+01 0 0 0
158 1 0.0000000000000000e+00 2.5659069295345283e+01 5.0023379736196691e+00 1.8099304528793748e+01 0 0 0
159 1 0.0000000000000000e+00 8.7111848637047071e+00 1.8266859478999724e+01 1.8099304528793748e+01 0 0 0
160 1 0.0000000000000000e+00 3.0551738896662317e+00 5.0023379736196665e+00 1.8099304528793745e+01 0 0 0
161 1 0.0000000000000000e+00 2.0013132566544236e+01 1.8266859478999731e+01 1.8099304528793752e+01 0 0 0
162 1 0.0000000000000000e+00 1.4357121592505759e+01 5.0023379736196718e+00 1.8099304528793748e+01 0 0 0
163 1 0.0000000000000000e+00 3.4161054097911482e+01 2.3115245295336109e+01 1.7198698440799369e+01 0 0 0
164 1 0.0000000000000000e+00 2.8505043123873055e+01 9.8507237899560529e+00 1.7198698440799358e+01 0 0 0
165 1 0.0000000000000000e+00 1.1557158692232429e+01 2.3115245295336113e+01 1.7198698440799369e+01 0 0 0
166 1 0.0000000000000000e+00 5.9011477181940046e+00 9.8507237899560511e+00 1.7198698440799358e+01 0 0 0
167 1 0.0000000000000000e+00 2.2859106395071958e+01 2.3115245295336120e+01 1.7198698440799372e+01 0 0 0
168 1 0.0000000000000000e+00 1.7203095421033531e+01 9.8507237899560565e+00 1.7198698440799358e+01 0 0 0
169 1 0.0000000000000000e+00 2.8518482276016044e+01 1.9460183657951028e+01 1.5557977502051948e+01 0 0 0
170 1 0.0000000000000000e+00 2.2862471301977561e+01 6.1956621525709732e+00 1.5557977502051941e+01 0 0 0
171 1 0.0000000000000000e+00 3.9820429978855564e+01 1.9460183657951021e+01 1.5557977502051946e+01 0 0 0
172 1 0.0000000000000000e+00 3.4164419004817091e+01 6.1956621525709696e+00 1.5557977502051942e+01 0 0 0
173 1 0.0000000000000000e+00 1.7216534573176514e+01 1.9460183657951028e+01 1.5557977502051948e+01 0 0 0
174 1 0.0000000000000000e+00 1.1560523599138032e+01 6.1956621525709705e+00 1.5557977502051946e+01 0 0 0
175 1 0.0000000000000000e+00 2.8471608263875396e+01 2.3102805483418088e+01 1.7184486161685385e+01 0 0 0
176 1 0.0000000000000000e+00 2.2815597289836962e+01 9.8382839780380369e+00 1.7184486161685381e+01 0 0 0
177 1 0.0000000000000000e+00 3.9773555966714916e+01 2.3102805483418081e+01 1.7184486161685385e+01 0 0 0
178 1 0.0000000000000000e+00 3.4117544992676500e+01 9.8382839780380298e+00 1.7184486161685381e+01 0 0 0
179 1 0.0000000000000000e+00 1.7169660561035869e+01 2.3102805483418088e+01 1.7184486161685385e+01 0 0 0
180 1 0.0000000000000000e+00 1.1513649586997438e+01 9.8382839780380316e+00 1.7184486161685385e+01 0 0 0
181 1 0.0000000000000000e+00 2.9897888833557548e+01 3.7776546738737986e+00 1.5960911393940036e+01 0 0 0
182 1 0.0000000000000000e+00 3.5553899807596025e+01 1.7042176179253861e+01 1.5960911393940041e+01 0 0 0
183 1 0.0000000000000000e+00 7.2939934278785001e+00 3.7776546738738008e+00 1.5960911393940041e+01 0 0 0
184 1 0.0000000000000000e+00 1.2950004401916983e+01 1.7042176179253858e+01 1.5960911393940037e+01 0 0 0
185 1 0.0000000000000000e+00 1.8595941130718028e+01 3.7776546738738053e+00 1.5960911393940037e+01 0 0 0
186 1 0.0000000000000000e+00 2.4251952104756509e+01 1.7042176179253861e+01 1.5960911393940037e+01 0 0 0
187 1 0.0000000000000000e+00 2.4248710490762569e+01 3.7777375284081240e+00 1.5960843303841378e+01 0 0 0
188 1 0.0000000000000000e+00 2.9904721464801060e+01 1.7042259033788184e+01 1.5960843303841379e+01 0 0 0
189 1 0.0000000000000000e+00 3.5550658193602111e+01 3.7777375284081218e+00 1.5960843303841379e+01 0 0 0
190 1 0.0000000000000000e+00 4.1206669167640584e+01 1.7042259033788181e+01 1.5960843303841379e+01 0 0 0
191 1 0.0000000000000000e+00 1.2946762787923060e+01 3.7777375284081276e+00 1.5960843303841383e+01 0 0 0
192 1 0.0000000000000000e+00 1.8602773761961537e+01 1.7042259033788184e+01 1.5960843303841379e+01 0 0 0
193 1 0.0000000000000000e+00 3.5553208728579982e+01 2.0705161678865551e+01 1.7654362350095937e+01 0 0 0
194 1 0.0000000000000000e+00 2.9897197754541523e+01 7.4406401734854946e+00 1.7654362350095926e+01 0 0 0
195 1 0.0000000000000000e+00 1.2949313322900935e+01 2.0705161678865551e+01 1.7654362350095933e+01 0 0 0
196 1 0.0000000000000000e+00 7.2933023488624720e+00 7.4406401734854928e+00 1.7654362350095926e+01 0 0 0
197 1 0.0000000000000000e+00 2.4251261025740465e+01 2.0705161678865554e+01 1.7654362350095937e+01 0 0 0
198 1 0.0000000000000000e+00 1.8595250051701999e+01 7.4406401734854972e+00 1.7654362350095926e+01 0 0 0
199 1 0.0000000000000000e+00 3.8383541395077657e+01 2.5507990696541377e+01 1.6760091913624059e+01 0 0 0
200 1 0.0000000000000000e+00 3.2727530421039283e+01 1.2243469191161322e+01 1.6760091913624059e+01 0 0 0
201 1 0.0000000000000000e+00 1.5779645989398606e+01 2.5507990696541377e+01 1.6760091913624059e+01 0 0 0
202 1 0.0000000000000000e+00 1.0123635015360229e+01 1.2243469191161326e+01 1.6760091913624056e+01 0 0 0
203 1 0.0000000000000000e+00 2.7081593692238137e+01 2.5507990696541377e+01 1.6760091913624059e+01 0 0 0
204 1 0.0000000000000000e+00 2.1425582718199763e+01 1.2243469191161331e+01 1.6760091913624059e+01 0 0 0
205 1 0.0000000000000000e+00 2.9908143310330885e+01 2.0705141697153042e+01 1.7654525907687113e+01 0 0 0
206 1 0.0000000000000000e+00 2.4252132336292416e+01 7.4406201917729868e+00 1.7654525907687113e+01 0 0 0
207 1 0.0000000000000000e+00 4.1210091013170420e+01 2.0705141697153039e+01 1.7654525907687113e+01 0 0 0
208 1 0.0000000000000000e+00 3.5554080039131954e+01 7.4406201917729806e+00 1.7654525907687116e+01 0 0 0
209 1 0.0000000000000000e+00 1.8606195607491358e+01 2.0705141697153042e+01 1.7654525907687113e+01 0 0 0
210 1 0.0000000000000000e+00 1.2950184633452894e+01 7.4406201917729851e+00 1.7654525907687113e+01 0 0 0
211 1 0.0000000000000000e+00 3.2732550075754347e+01 2.5499110553847558e+01 1.6746876066276720e+01 0 0 0
212 1 0.0000000000000000e+00 2.7076539101715973e+01 1.2234589048467507e+01 1.6746876066276716e+01 0 0 0
213 1 0.0000000000000000e+00 4.4034497778593874e+01 2.5499110553847554e+01 1.6746876066276720e+01 0 0 0
214 1 0.0000000000000000e+00 3.8378486804555500e+01 1.2234589048467504e+01 1.6746876066276720e+01 0 0 0
215 1 0.0000000000000000e+00 2.1430602372914827e+01 2.5499110553847558e+01 1.6746876066276727e+01 0 0 0
216 1 0.0000000000000000e+00 1.5774591398876446e+01 1.2234589048467507e+01 1.6746876066276716e+01 0 0 0
217 1 0.0000000000000000e+00 2.7073295569560962e+01 3.7823298369549563e+00 1.5947209713325760e+01 0 0 0
218 1 0.0000000000000000e+00 3.2729306543599442e+01 1.7046851342335010e+01 1.5947209713325760e+01 0 0 0
219 1 0.0000000000000000e+00 4.4694001638819039e+00 3.7823298369549518e+00 1.5947209713325760e+01 0 0 0
220 1 0.0000000000000000e+00 1.0125411137920384e+01 1.7046851342335010e+01 1.5947209713325760e+01 0 0 0
221 1 0.0000000000000000e+00 1.5771347866721438e+01 3.7823298369549563e+00 1.5947209713325760e+01 0 0 0
222 1 0.0000000000000000e+00 2.1427358840759915e+01 1.7046851342335014e+01 1.5947209713325760e+01 0 0 0
223 1 0.0000000000000000e+00 2.1422329760500748e+01 3.7819425944768819e+00 1.5967360185206033e+01 0 0 0
224 1 0.0000000000000000e+00 2.7078340734539232e+01 1.7046464099856937e+01 1.5967360185206037e+01 0 0 0
225 1 0.0000000000000000e+00 3.2724277463340279e+01 3.7819425944768792e+00 1.5967360185206033e+01 0 0 0
226 1 0.0000000000000000e+00 3.8380288437378759e+01 1.7046464099856930e+01 1.5967360185206037e+01 0 0 0
227 1 0.0000000000000000e+00 1.0120382057661223e+01 3.7819425944768805e+00 1.5967360185206038e+01 0 0 0
228 1 0.0000000000000000e+00 1.5776393031699705e+01 1.7046464099856937e+01 1.5967360185206033e+01 0 0 0
229 1 0.0000000000000000e+00 3.2730676613353204e+01 2.0703468256317485e+01 1.7659971726487338e+01 0 0 0
230 1 0.0000000000000000e+00 2.7074665639314734e+01 7.4389467509374256e+00 1.7659971726487324e+01 0 0 0
231 1 0.0000000000000000e+00 1.0126781207674156e+01 2.0703468256317478e+01 1.7659971726487335e+01 0 0 0
232 1 0.0000000000000000e+00 4.4707702336356885e+00 7.4389467509374230e+00 1.7659971726487335e+01 0 0 0
233 1 0.0000000000000000e+00 2.1428728910513680e+01 2.0703468256317485e+01 1.7659971726487338e+01 0 0 0
234 1 0.0000000000000000e+00 1.5772717936475214e+01 7.4389467509374283e+00 1.7659971726487335e+01 0 0 0
235 1 0.0000000000000000e+00 3.5554369963931059e+01 2.5504010640092034e+01 1.6753265636964503e+01 0 0 0
236 1 0.0000000000000000e+00 2.9898358989892674e+01 1.2239489134711983e+01 1.6753265636964500e+01 0 0 0
237 1 0.0000000000000000e+00 1.2950474558252006e+01 2.5504010640092037e+01 1.6753265636964500e+01 0 0 0
238 1 0.0000000000000000e+00 7.2944635842136307e+00 1.2239489134711977e+01 1.6753265636964500e+01 0 0 0
239 1 0.0000000000000000e+00 2.4252422261091539e+01 2.5504010640092037e+01 1.6753265636964507e+01 0 0 0
240 1 0.0000000000000000e+00 1.8596411287053158e+01 1.2239489134711981e+01 1.6753265636964500e+01 0 0 0
241 1 0.0000000000000000e+00 2.7079694718539304e+01 2.0707934235542531e+01 1.7631499892025740e+01 0 0 0
242 1 0.0000000000000000e+00 2.1423683744500838e+01 7.4434127301624740e+00 1.7631499892025730e+01 0 0 0
243 1 0.0000000000000000e+00 3.8381642421378828e+01 2.0707934235542528e+01 1.7631499892025737e+01 0 0 0
244 1 0.0000000000000000e+00 3.2725631447340362e+01 7.4434127301624695e+00 1.7631499892025733e+01 0 0 0
245 1 0.0000000000000000e+00 1.5777747015699779e+01 2.0707934235542531e+01 1.7631499892025737e+01 0 0 0
246 1 0.0000000000000000e+00 1.0121736041661315e+01 7.4434127301624713e+00 1.7631499892025733e+01 0 0 0
247 1 0.0000000000000000e+00 2.9910745483702954e+01 2.5504016571105826e+01 1.6753287194637430e+01 0 0 0
248 1 0.0000000000000000e+00 2.4254734509664576e+01 1.2239495065725771e+01 1.6753287194637430e+01 0 0 0
249 1 0.0000000000000000e+00 4.1212693186542474e+01 2.5504016571105819e+01 1.6753287194637430e+01 0 0 0
250 1 0.0000000000000000e+00 3.5556682212504107e+01 1.2239495065725762e+01 1.6753287194637430e+01 0 0 0
251 1 0.0000000000000000e+00 1.8608797780863437e+01 2.5504016571105822e+01 1.6753287194637434e+01 0 0 0
252 1 0.0000000000000000e+00 1.2952786806825051e+01 1.2239495065725768e+01 1.6753287194637430e+01 0 0 0
253 1 0.0000000000000000e+00 2.8485663921908781e+01 1.3821397111046609e+00 1.6351979662711152e+01 0 0 0
254 1 0.0000000000000000e+00 3.4141674895947219e+01 1.4646661216484718e+01 1.6351979662711155e+01 0 0 0
255 1 0.0000000000000000e+00 5.8817685162297240e+00 1.3821397111046636e+00 1.6351979662711155e+01 0 0 0
256 1 0.0000000000000000e+00 1.1537779490268171e+01 1.4646661216484722e+01 1.6351979662711155e+01 0 0 0
257 1 0.0000000000000000e+00 1.7183716219069250e+01 1.3821397111046685e+00 1.6351979662711155e+01 0 0 0
258 1 0.0000000000000000e+00 2.2839727193107702e+01 1.4646661216484723e+01 1.6351979662711155e+01 0 0 0
259 1 0.0000000000000000e+00 2.2832977219663043e+01 1.3834669767879499e+00 1.6355124754222494e+01 0 0 0
260 1 0.0000000000000000e+00 2.8488988193701495e+01 1.4647988482168001e+01 1.6355124754222494e+01 0 0 0
261 1 0.0000000000000000e+00 3.4134924922502563e+01 1.3834669767879433e+00 1.6355124754222494e+01 0 0 0
262 1 0.0000000000000000e+00 3.9790935896541015e+01 1.4647988482168001e+01 1.6355124754222494e+01 0 0 0
263 1 0.0000000000000000e+00 1.1531029516823519e+01 1.3834669767879491e+00 1.6355124754222501e+01 0 0 0
264 1 0.0000000000000000e+00 1.7187040490861968e+01 1.4647988482168008e+01 1.6355124754222494e+01 0 0 0
265 1 0.0000000000000000e+00 2.8488382768715262e+01 5.0023339828134343e+00 1.8099317092206270e+01 0 0 0
266 1 0.0000000000000000e+00 3.4144393742753742e+01 1.8266855488193485e+01 1.8099317092206270e+01 0 0 0
267 1 0.0000000000000000e+00 5.8844873630362109e+00 5.0023339828134317e+00 1.8099317092206270e+01 0 0 0
268 1 0.0000000000000000e+00 1.1540498337074684e+01 1.8266855488193492e+01 1.8099317092206270e+01 0 0 0
269 1 0.0000000000000000e+00 1.7186435065875738e+01 5.0023339828134343e+00 1.8099317092206267e+01 0 0 0
270 1 0.0000000000000000e+00 2.2842446039914211e+01 1.8266855488193496e+01 1.8099317092206274e+01 0 0 0
271 1 0.0000000000000000e+00 3.6991598565035993e+01 2.3102777903758188e+01 1.7184390514701505e+01 0 0 0
272 1 0.0000000000000000e+00 3.1335587590997573e+01 9.8382563983781299e+00 1.7184390514701494e+01 0 0 0
273 1 0.0000000000000000e+00 1.4387703159356946e+01 2.3102777903758192e+01 1.7184390514701501e+01 0 0 0
274 1 0.0000000000000000e+00 8.7316921853185168e+00 9.8382563983781317e+00 1.7184390514701494e+01 0 0 0
275 1 0.0000000000000000e+00 2.5689650862196473e+01 2.3102777903758195e+01 1.7184390514701505e+01 0 0 0
276 1 0.0000000000000000e+00 2.0033639888158042e+01 9.8382563983781370e+00 1.7184390514701494e+01 0 0 0
277 1 0.0000000000000000e+00 3.1335907335628484e+01 1.9440048467197329e+01 1.5590151796569847e+01 0 0 0
278 1 0.0000000000000000e+00 2.5679896361590000e+01 6.1755269618172717e+00 1.5590151796569847e+01 0 0 0
279 1 0.0000000000000000e+00 8.7320119299494348e+00 1.9440048467197325e+01 1.5590151796569847e+01 0 0 0
280 1 0.0000000000000000e+00 3.0760009559109478e+00 6.1755269618172672e+00 1.5590151796569847e+01 0 0 0
281 1 0.0000000000000000e+00 2.0033959632788960e+01 1.9440048467197329e+01 1.5590151796569852e+01 0 0 0
282 1 0.0000000000000000e+00 1.4377948658750473e+01 6.1755269618172717e+00 1.5590151796569847e+01 0 0 0
283 1 0.0000000000000000e+00 3.1302235547313671e+01 2.3115269490509693e+01 1.7198777087249947e+01 0 0 0
284 1 0.0000000000000000e+00 2.5646224573275237e+01 9.8507479851296438e+00 1.7198777087249947e+01 0 0 0
285 1 0.0000000000000000e+00 4.2604183250153191e+01 2.3115269490509693e+01 1.7198777087249947e+01 0 0 0