datafile (written by JARVIS-FF) 

1152 	 atoms 
1  atom types
0.0 34.365389290  xlo xhi
0.0 26.864660586  ylo yhi
0.0 46.626996292  zlo zhi
11.455129763 0E-9 0E-9  xy xz yz


Atoms 

     1   1 0.000000 28.637824408 2.442241872 13.815406309
     2   1 0.000000 34.365389290 15.874572165 13.815406309
     3   1 0.000000 5.727564882 2.442241872 13.815406309
     4   1 0.000000 11.455129763 15.874572165 13.815406309
     5   1 0.000000 17.182694645 2.442241872 13.815406309
     6   1 0.000000 22.910259527 15.874572165 13.815406309
     7   1 0.000000 22.910259527 2.442241872 13.815406309
     8   1 0.000000 28.637824408 15.874572165 13.815406309
     9   1 0.000000 34.365389290 2.442241872 13.815406309
    10   1 0.000000 40.092954172 15.874572165 13.815406309
    11   1 0.000000 11.455129763 2.442241872 13.815406309
    12   1 0.000000 17.182694645 15.874572165 13.815406309
    13   1 0.000000 34.365389290 19.537934972 15.542332098
    14   1 0.000000 28.637824408 6.105604679 15.542332098
    15   1 0.000000 11.455129763 19.537934972 15.542332098
    16   1 0.000000 5.727564882 6.105604679 15.542332098
    17   1 0.000000 22.910259527 19.537934972 15.542332098
    18   1 0.000000 17.182694645 6.105604679 15.542332098
    19   1 0.000000 37.229171731 24.422418715 14.678869203
    20   1 0.000000 31.501606849 10.990088422 14.678869203
    21   1 0.000000 14.318912204 24.422418715 14.678869203
    22   1 0.000000 8.591347323 10.990088422 14.678869203
    23   1 0.000000 25.774041968 24.422418715 14.678869203
    24   1 0.000000 20.046477086 10.990088422 14.678869203
    25   1 0.000000 31.501606849 20.759055908 12.951943415
    26   1 0.000000 25.774041968 7.326725615 12.951943415
    27   1 0.000000 42.956736613 20.759055908 12.951943415
    28   1 0.000000 37.229171731 7.326725615 12.951943415
    29   1 0.000000 20.046477086 20.759055908 12.951943415
    30   1 0.000000 14.318912204 7.326725615 12.951943415
    31   1 0.000000 31.501606849 24.422418715 14.678869203
    32   1 0.000000 25.774041968 10.990088422 14.678869203
    33   1 0.000000 42.956736613 24.422418715 14.678869203
    34   1 0.000000 37.229171731 10.990088422 14.678869203
    35   1 0.000000 20.046477086 24.422418715 14.678869203
    36   1 0.000000 14.318912204 10.990088422 14.678869203
    37   1 0.000000 32.933498070 4.884483743 13.383674862
    38   1 0.000000 38.661062951 18.316814036 13.383674862
    39   1 0.000000 10.023238543 4.884483743 13.383674862
    40   1 0.000000 15.750803425 18.316814036 13.383674862
    41   1 0.000000 21.478368306 4.884483743 13.383674862
    42   1 0.000000 27.205933188 18.316814036 13.383674862
    43   1 0.000000 27.205933188 4.884483743 13.383674862
    44   1 0.000000 32.933498070 18.316814036 13.383674862
    45   1 0.000000 4.295673661 4.884483743 13.383674862
    46   1 0.000000 10.023238543 18.316814036 13.383674862
    47   1 0.000000 15.750803425 4.884483743 13.383674862
    48   1 0.000000 21.478368306 18.316814036 13.383674862
    49   1 0.000000 38.661062951 21.980176844 15.110600651
    50   1 0.000000 32.933498070 8.547846550 15.110600651
    51   1 0.000000 15.750803425 21.980176844 15.110600651
    52   1 0.000000 10.023238543 8.547846550 15.110600651
    53   1 0.000000 27.205933188 21.980176844 15.110600651
    54   1 0.000000 21.478368306 8.547846550 15.110600651
    55   1 0.000000 41.524845392 26.864660587 14.247137756
    56   1 0.000000 35.797280511 13.432330293 14.247137756
    57   1 0.000000 18.614585866 26.864660587 14.247137756
    58   1 0.000000 12.887020984 13.432330293 14.247137756
    59   1 0.000000 30.069715629 26.864660587 14.247137756
    60   1 0.000000 24.342150747 13.432330293 14.247137756
    61   1 0.000000 32.933498070 21.980176844 15.110600651
    62   1 0.000000 27.205933188 8.547846550 15.110600651
    63   1 0.000000 10.023238543 21.980176844 15.110600651
    64   1 0.000000 4.295673661 8.547846550 15.110600651
    65   1 0.000000 21.478368306 21.980176844 15.110600651
    66   1 0.000000 15.750803425 8.547846550 15.110600651
    67   1 0.000000 24.342150747 0E-9 14.247137756
    68   1 0.000000 30.069715629 13.432330293 14.247137756
    69   1 0.000000 1.431891220 0E-9 14.247137756
    70   1 0.000000 7.159456102 13.432330293 14.247137756
    71   1 0.000000 12.887020984 0E-9 14.247137756
    72   1 0.000000 18.614585866 13.432330293 14.247137756
    73   1 0.000000 30.069715629 4.884483743 13.383674862
    74   1 0.000000 35.797280511 18.316814036 13.383674862
    75   1 0.000000 7.159456102 4.884483743 13.383674862
    76   1 0.000000 12.887020984 18.316814036 13.383674862
    77   1 0.000000 18.614585866 4.884483743 13.383674862
    78   1 0.000000 24.342150747 18.316814036 13.383674862
    79   1 0.000000 24.342150747 4.884483743 13.383674862
    80   1 0.000000 30.069715629 18.316814036 13.383674862
    81   1 0.000000 35.797280511 4.884483743 13.383674862
    82   1 0.000000 41.524845392 18.316814036 13.383674862
    83   1 0.000000 12.887020984 4.884483743 13.383674862
    84   1 0.000000 18.614585866 18.316814036 13.383674862
    85   1 0.000000 35.797280511 21.980176844 15.110600651
    86   1 0.000000 30.069715629 8.547846550 15.110600651
    87   1 0.000000 12.887020984 21.980176844 15.110600651
    88   1 0.000000 7.159456102 8.547846550 15.110600651
    89   1 0.000000 24.342150747 21.980176844 15.110600651
    90   1 0.000000 18.614585866 8.547846550 15.110600651
    91   1 0.000000 38.661062951 26.864660587 14.247137756
    92   1 0.000000 32.933498070 13.432330293 14.247137756
    93   1 0.000000 15.750803425 26.864660587 14.247137756
    94   1 0.000000 10.023238543 13.432330293 14.247137756
    95   1 0.000000 27.205933188 26.864660587 14.247137756
    96   1 0.000000 21.478368306 13.432330293 14.247137756
    97   1 0.000000 30.069715629 21.980176844 15.110600651
    98   1 0.000000 24.342150747 8.547846550 15.110600651
    99   1 0.000000 41.524845392 21.980176844 15.110600651
   100   1 0.000000 35.797280511 8.547846550 15.110600651
   101   1 0.000000 18.614585866 21.980176844 15.110600651
   102   1 0.000000 12.887020984 8.547846550 15.110600651
   103   1 0.000000 21.478368306 0E-9 14.247137756
   104   1 0.000000 27.205933188 13.432330293 14.247137756
   105   1 0.000000 32.933498070 0E-9 14.247137756
   106   1 0.000000 38.661062951 13.432330293 14.247137756
   107   1 0.000000 10.023238543 0E-9 14.247137756
   108   1 0.000000 15.750803425 13.432330293 14.247137756
   109   1 0.000000 31.501606849 2.442241872 13.815406309
   110   1 0.000000 37.229171731 15.874572165 13.815406309
   111   1 0.000000 8.591347323 2.442241872 13.815406309
   112   1 0.000000 14.318912204 15.874572165 13.815406309
   113   1 0.000000 20.046477086 2.442241872 13.815406309
   114   1 0.000000 25.774041968 15.874572165 13.815406309
   115   1 0.000000 25.774041968 2.442241872 13.815406309
   116   1 0.000000 31.501606849 15.874572165 13.815406309
   117   1 0.000000 2.863782441 2.442241872 13.815406309
   118   1 0.000000 8.591347323 15.874572165 13.815406309
   119   1 0.000000 14.318912204 2.442241872 13.815406309
   120   1 0.000000 20.046477086 15.874572165 13.815406309
   121   1 0.000000 31.501606849 6.105604679 15.542332098
   122   1 0.000000 37.229171731 19.537934972 15.542332098
   123   1 0.000000 8.591347323 6.105604679 15.542332098
   124   1 0.000000 14.318912204 19.537934972 15.542332098
   125   1 0.000000 20.046477086 6.105604679 15.542332098
   126   1 0.000000 25.774041968 19.537934972 15.542332098
   127   1 0.000000 40.092954172 24.422418715 14.678869203
   128   1 0.000000 34.365389290 10.990088422 14.678869203
   129   1 0.000000 17.182694645 24.422418715 14.678869203
   130   1 0.000000 11.455129763 10.990088422 14.678869203
   131   1 0.000000 28.637824408 24.422418715 14.678869203
   132   1 0.000000 22.910259527 10.990088422 14.678869203
   133   1 0.000000 34.365389290 20.759055908 12.951943415
   134   1 0.000000 28.637824408 7.326725615 12.951943415
   135   1 0.000000 11.455129763 20.759055908 12.951943415
   136   1 0.000000 5.727564882 7.326725615 12.951943415
   137   1 0.000000 22.910259527 20.759055908 12.951943415
   138   1 0.000000 17.182694645 7.326725615 12.951943415
   139   1 0.000000 34.365389290 24.422418715 14.678869203
   140   1 0.000000 28.637824408 10.990088422 14.678869203
   141   1 0.000000 11.455129763 24.422418715 14.678869203
   142   1 0.000000 5.727564882 10.990088422 14.678869203
   143   1 0.000000 22.910259527 24.422418715 14.678869203
   144   1 0.000000 17.182694645 10.990088422 14.678869203
   145   1 0.000000 25.774041968 1.221120936 16.405794992
   146   1 0.000000 31.501606849 14.653451229 16.405794992
   147   1 0.000000 2.863782441 1.221120936 16.405794992
   148   1 0.000000 8.591347323 14.653451229 16.405794992
   149   1 0.000000 14.318912204 1.221120936 16.405794992
   150   1 0.000000 20.046477086 14.653451229 16.405794992
   151   1 0.000000 20.046477086 1.221120936 16.405794992
   152   1 0.000000 25.774041968 14.653451229 16.405794992
   153   1 0.000000 31.501606849 1.221120936 16.405794992
   154   1 0.000000 37.229171731 14.653451229 16.405794992
   155   1 0.000000 8.591347323 1.221120936 16.405794992
   156   1 0.000000 14.318912204 14.653451229 16.405794992
   157   1 0.000000 31.501606849 18.316814036 18.132720781
   158   1 0.000000 25.774041968 4.884483743 18.132720781
   159   1 0.000000 8.591347323 18.316814036 18.132720781
   160   1 0.000000 2.863782441 4.884483743 18.132720781
   161   1 0.000000 20.046477086 18.316814036 18.132720781
   162   1 0.000000 14.318912204 4.884483743 18.132720781
   163   1 0.000000 34.365389290 23.201297779 17.269257886
   164   1 0.000000 28.637824408 9.768967486 17.269257886
   165   1 0.000000 11.455129763 23.201297779 17.269257886
   166   1 0.000000 5.727564882 9.768967486 17.269257886
   167   1 0.000000 22.910259527 23.201297779 17.269257886
   168   1 0.000000 17.182694645 9.768967486 17.269257886
   169   1 0.000000 28.637824408 19.537934972 15.542332098
   170   1 0.000000 22.910259527 6.105604679 15.542332098
   171   1 0.000000 40.092954172 19.537934972 15.542332098
   172   1 0.000000 34.365389290 6.105604679 15.542332098
   173   1 0.000000 17.182694645 19.537934972 15.542332098
   174   1 0.000000 11.455129763 6.105604679 15.542332098
   175   1 0.000000 28.637824408 23.201297779 17.269257886
   176   1 0.000000 22.910259527 9.768967486 17.269257886
   177   1 0.000000 40.092954172 23.201297779 17.269257886
   178   1 0.000000 34.365389290 9.768967486 17.269257886
   179   1 0.000000 17.182694645 23.201297779 17.269257886
   180   1 0.000000 11.455129763 9.768967486 17.269257886
   181   1 0.000000 30.069715629 3.663362807 15.974063545
   182   1 0.000000 35.797280511 17.095693101 15.974063545
   183   1 0.000000 7.159456102 3.663362807 15.974063545
   184   1 0.000000 12.887020984 17.095693101 15.974063545
   185   1 0.000000 18.614585866 3.663362807 15.974063545
   186   1 0.000000 24.342150747 17.095693101 15.974063545
   187   1 0.000000 24.342150747 3.663362807 15.974063545
   188   1 0.000000 30.069715629 17.095693101 15.974063545
   189   1 0.000000 35.797280511 3.663362807 15.974063545
   190   1 0.000000 41.524845392 17.095693101 15.974063545
   191   1 0.000000 12.887020984 3.663362807 15.974063545
   192   1 0.000000 18.614585866 17.095693101 15.974063545
   193   1 0.000000 35.797280511 20.759055908 17.700989334
   194   1 0.000000 30.069715629 7.326725615 17.700989334
   195   1 0.000000 12.887020984 20.759055908 17.700989334
   196   1 0.000000 7.159456102 7.326725615 17.700989334
   197   1 0.000000 24.342150747 20.759055908 17.700989334
   198   1 0.000000 18.614585866 7.326725615 17.700989334
   199   1 0.000000 38.661062951 25.643539651 16.837526439
   200   1 0.000000 32.933498070 12.211209358 16.837526439
   201   1 0.000000 15.750803425 25.643539651 16.837526439
   202   1 0.000000 10.023238543 12.211209358 16.837526439
   203   1 0.000000 27.205933188 25.643539651 16.837526439
   204   1 0.000000 21.478368306 12.211209358 16.837526439
   205   1 0.000000 30.069715629 20.759055908 17.700989334
   206   1 0.000000 24.342150747 7.326725615 17.700989334
   207   1 0.000000 41.524845392 20.759055908 17.700989334
   208   1 0.000000 35.797280511 7.326725615 17.700989334
   209   1 0.000000 18.614585866 20.759055908 17.700989334
   210   1 0.000000 12.887020984 7.326725615 17.700989334
   211   1 0.000000 32.933498070 25.643539651 16.837526439
   212   1 0.000000 27.205933188 12.211209358 16.837526439
   213   1 0.000000 44.388627833 25.643539651 16.837526439
   214   1 0.000000 38.661062951 12.211209358 16.837526439
   215   1 0.000000 21.478368306 25.643539651 16.837526439
   216   1 0.000000 15.750803425 12.211209358 16.837526439
   217   1 0.000000 27.205933188 3.663362807 15.974063545
   218   1 0.000000 32.933498070 17.095693101 15.974063545
   219   1 0.000000 4.295673661 3.663362807 15.974063545
   220   1 0.000000 10.023238543 17.095693101 15.974063545
   221   1 0.000000 15.750803425 3.663362807 15.974063545
   222   1 0.000000 21.478368306 17.095693101 15.974063545
   223   1 0.000000 21.478368306 3.663362807 15.974063545
   224   1 0.000000 27.205933188 17.095693101 15.974063545
   225   1 0.000000 32.933498070 3.663362807 15.974063545
   226   1 0.000000 38.661062951 17.095693101 15.974063545
   227   1 0.000000 10.023238543 3.663362807 15.974063545
   228   1 0.000000 15.750803425 17.095693101 15.974063545
   229   1 0.000000 32.933498070 20.759055908 17.700989334
   230   1 0.000000 27.205933188 7.326725615 17.700989334
   231   1 0.000000 10.023238543 20.759055908 17.700989334
   232   1 0.000000 4.295673661 7.326725615 17.700989334
   233   1 0.000000 21.478368306 20.759055908 17.700989334
   234   1 0.000000 15.750803425 7.326725615 17.700989334
   235   1 0.000000 35.797280511 25.643539651 16.837526439
   236   1 0.000000 30.069715629 12.211209358 16.837526439
   237   1 0.000000 12.887020984 25.643539651 16.837526439
   238   1 0.000000 7.159456102 12.211209358 16.837526439
   239   1 0.000000 24.342150747 25.643539651 16.837526439
   240   1 0.000000 18.614585866 12.211209358 16.837526439
   241   1 0.000000 27.205933188 20.759055908 17.700989334
   242   1 0.000000 21.478368306 7.326725615 17.700989334
   243   1 0.000000 38.661062951 20.759055908 17.700989334
   244   1 0.000000 32.933498070 7.326725615 17.700989334
   245   1 0.000000 15.750803425 20.759055908 17.700989334
   246   1 0.000000 10.023238543 7.326725615 17.700989334
   247   1 0.000000 30.069715629 25.643539651 16.837526439
   248   1 0.000000 24.342150747 12.211209358 16.837526439
   249   1 0.000000 41.524845392 25.643539651 16.837526439
   250   1 0.000000 35.797280511 12.211209358 16.837526439
   251   1 0.000000 18.614585866 25.643539651 16.837526439
   252   1 0.000000 12.887020984 12.211209358 16.837526439
   253   1 0.000000 28.637824408 1.221120936 16.405794992
   254   1 0.000000 34.365389290 14.653451229 16.405794992
   255   1 0.000000 5.727564882 1.221120936 16.405794992
   256   1 0.000000 11.455129763 14.653451229 16.405794992
   257   1 0.000000 17.182694645 1.221120936 16.405794992
   258   1 0.000000 22.910259527 14.653451229 16.405794992
   259   1 0.000000 22.910259527 1.221120936 16.405794992
   260   1 0.000000 28.637824408 14.653451229 16.405794992
   261   1 0.000000 34.365389290 1.221120936 16.405794992
   262   1 0.000000 40.092954172 14.653451229 16.405794992
   263   1 0.000000 11.455129763 1.221120936 16.405794992
   264   1 0.000000 17.182694645 14.653451229 16.405794992
   265   1 0.000000 28.637824408 4.884483743 18.132720781
   266   1 0.000000 34.365389290 18.316814036 18.132720781
   267   1 0.000000 5.727564882 4.884483743 18.132720781
   268   1 0.000000 11.455129763 18.316814036 18.132720781
   269   1 0.000000 17.182694645 4.884483743 18.132720781
   270   1 0.000000 22.910259527 18.316814036 18.132720781
   271   1 0.000000 37.229171731 23.201297779 17.269257886
   272   1 0.000000 31.501606849 9.768967486 17.269257886
   273   1 0.000000 14.318912204 23.201297779 17.269257886
   274   1 0.000000 8.591347323 9.768967486 17.269257886
   275   1 0.000000 25.774041968 23.201297779 17.269257886
   276   1 0.000000 20.046477086 9.768967486 17.269257886
   277   1 0.000000 31.501606849 19.537934972 15.542332098
   278   1 0.000000 25.774041968 6.105604679 15.542332098
   279   1 0.000000 8.591347323 19.537934972 15.542332098
   280   1 0.000000 2.863782441 6.105604679 15.542332098
   281   1 0.000000 20.046477086 19.537934972 15.542332098
   282   1 0.000000 14.318912204 6.105604679 15.542332098
   283   1 0.000000 31.501606849 23.201297779 17.269257886
   284   1 0.000000 25.774041968 9.768967486 17.269257886
   285   1 0.000000 42.956736613 23.201297779 17.269257886
   286   1 0.000000 37.229171731 9.768967486 17.269257886
   287   1 0.000000 20.046477086 23.201297779 17.269257886
   288   1 0.000000 14.318912204 9.768967486 17.269257886
   289   1 0.000000 34.365389290 26.864660587 18.996183675
   290   1 0.000000 28.637824408 13.432330293 18.996183675
   291   1 0.000000 45.820519054 26.864660587 18.996183675
   292   1 0.000000 40.092954172 13.432330293 18.996183675
   293   1 0.000000 22.910259527 26.864660587 18.996183675
   294   1 0.000000 17.182694645 13.432330293 18.996183675
   295   1 0.000000 17.182694645 0E-9 18.996183675
   296   1 0.000000 22.910259527 13.432330293 18.996183675
   297   1 0.000000 28.637824408 0E-9 18.996183675
   298   1 0.000000 34.365389290 13.432330293 18.996183675
   299   1 0.000000 5.727564882 0E-9 18.996183675
   300   1 0.000000 11.455129763 13.432330293 18.996183675
   301   1 0.000000 28.637824408 17.095693101 20.723109464
   302   1 0.000000 22.910259527 3.663362807 20.723109464
   303   1 0.000000 40.092954172 17.095693101 20.723109464
   304   1 0.000000 34.365389290 3.663362807 20.723109464
   305   1 0.000000 17.182694645 17.095693101 20.723109464
   306   1 0.000000 11.455129763 3.663362807 20.723109464
   307   1 0.000000 31.501606849 21.980176844 19.859646569
   308   1 0.000000 25.774041968 8.547846550 19.859646569
   309   1 0.000000 42.956736613 21.980176844 19.859646569
   310   1 0.000000 37.229171731 8.547846550 19.859646569
   311   1 0.000000 20.046477086 21.980176844 19.859646569
   312   1 0.000000 14.318912204 8.547846550 19.859646569
   313   1 0.000000 25.774041968 18.316814036 18.132720781
   314   1 0.000000 20.046477086 4.884483743 18.132720781
   315   1 0.000000 37.229171731 18.316814036 18.132720781
   316   1 0.000000 31.501606849 4.884483743 18.132720781
   317   1 0.000000 14.318912204 18.316814036 18.132720781
   318   1 0.000000 8.591347323 4.884483743 18.132720781
   319   1 0.000000 25.774041968 21.980176844 19.859646569
   320   1 0.000000 20.046477086 8.547846550 19.859646569
   321   1 0.000000 37.229171731 21.980176844 19.859646569
   322   1 0.000000 31.501606849 8.547846550 19.859646569
   323   1 0.000000 14.318912204 21.980176844 19.859646569
   324   1 0.000000 8.591347323 8.547846550 19.859646569
   325   1 0.000000 27.205933188 2.442241872 18.564452228
   326   1 0.000000 32.933498070 15.874572165 18.564452228
   327   1 0.000000 4.295673661 2.442241872 18.564452228
   328   1 0.000000 10.023238543 15.874572165 18.564452228
   329   1 0.000000 15.750803425 2.442241872 18.564452228
   330   1 0.000000 21.478368306 15.874572165 18.564452228
   331   1 0.000000 21.478368306 2.442241872 18.564452228
   332   1 0.000000 27.205933188 15.874572165 18.564452228
   333   1 0.000000 32.933498070 2.442241872 18.564452228
   334   1 0.000000 38.661062951 15.874572165 18.564452228
   335   1 0.000000 10.023238543 2.442241872 18.564452228
   336   1 0.000000 15.750803425 15.874572165 18.564452228
   337   1 0.000000 32.933498070 19.537934972 20.291378016
   338   1 0.000000 27.205933188 6.105604679 20.291378016
   339   1 0.000000 10.023238543 19.537934972 20.291378016
   340   1 0.000000 4.295673661 6.105604679 20.291378016
   341   1 0.000000 21.478368306 19.537934972 20.291378016
   342   1 0.000000 15.750803425 6.105604679 20.291378016
   343   1 0.000000 35.797280511 24.422418715 19.427915122
   344   1 0.000000 30.069715629 10.990088422 19.427915122
   345   1 0.000000 12.887020984 24.422418715 19.427915122
   346   1 0.000000 7.159456102 10.990088422 19.427915122
   347   1 0.000000 24.342150747 24.422418715 19.427915122
   348   1 0.000000 18.614585866 10.990088422 19.427915122
   349   1 0.000000 27.205933188 19.537934972 20.291378016
   350   1 0.000000 21.478368306 6.105604679 20.291378016
   351   1 0.000000 38.661062951 19.537934972 20.291378016
   352   1 0.000000 32.933498070 6.105604679 20.291378016
   353   1 0.000000 15.750803425 19.537934972 20.291378016
   354   1 0.000000 10.023238543 6.105604679 20.291378016
   355   1 0.000000 30.069715629 24.422418715 19.427915122
   356   1 0.000000 24.342150747 10.990088422 19.427915122
   357   1 0.000000 41.524845392 24.422418715 19.427915122
   358   1 0.000000 35.797280511 10.990088422 19.427915122
   359   1 0.000000 18.614585866 24.422418715 19.427915122
   360   1 0.000000 12.887020984 10.990088422 19.427915122
   361   1 0.000000 24.342150747 2.442241872 18.564452228
   362   1 0.000000 30.069715629 15.874572165 18.564452228
   363   1 0.000000 1.431891220 2.442241872 18.564452228
   364   1 0.000000 7.159456102 15.874572165 18.564452228
   365   1 0.000000 12.887020984 2.442241872 18.564452228
   366   1 0.000000 18.614585866 15.874572165 18.564452228
   367   1 0.000000 18.614585866 2.442241872 18.564452228
   368   1 0.000000 24.342150747 15.874572165 18.564452228
   369   1 0.000000 30.069715629 2.442241872 18.564452228
   370   1 0.000000 35.797280511 15.874572165 18.564452228
   371   1 0.000000 7.159456102 2.442241872 18.564452228
   372   1 0.000000 12.887020984 15.874572165 18.564452228
   373   1 0.000000 30.069715629 19.537934972 20.291378016
   374   1 0.000000 24.342150747 6.105604679 20.291378016
   375   1 0.000000 41.524845392 19.537934972 20.291378016
   376   1 0.000000 35.797280511 6.105604679 20.291378016
   377   1 0.000000 18.614585866 19.537934972 20.291378016
   378   1 0.000000 12.887020984 6.105604679 20.291378016
   379   1 0.000000 32.933498070 24.422418715 19.427915122
   380   1 0.000000 27.205933188 10.990088422 19.427915122
   381   1 0.000000 44.388627833 24.422418715 19.427915122
   382   1 0.000000 38.661062951 10.990088422 19.427915122
   383   1 0.000000 21.478368306 24.422418715 19.427915122
   384   1 0.000000 15.750803425 10.990088422 19.427915122
   385   1 0.000000 24.342150747 19.537934972 20.291378016
   386   1 0.000000 18.614585866 6.105604679 20.291378016
   387   1 0.000000 35.797280511 19.537934972 20.291378016
   388   1 0.000000 30.069715629 6.105604679 20.291378016
   389   1 0.000000 12.887020984 19.537934972 20.291378016
   390   1 0.000000 7.159456102 6.105604679 20.291378016
   391   1 0.000000 27.205933188 24.422418715 19.427915122
   392   1 0.000000 21.478368306 10.990088422 19.427915122
   393   1 0.000000 38.661062951 24.422418715 19.427915122
   394   1 0.000000 32.933498070 10.990088422 19.427915122
   395   1 0.000000 15.750803425 24.422418715 19.427915122
   396   1 0.000000 10.023238543 10.990088422 19.427915122
   397   1 0.000000 37.229171731 26.864660587 18.996183675
   398   1 0.000000 31.501606849 13.432330293 18.996183675
   399   1 0.000000 14.318912204 26.864660587 18.996183675
   400   1 0.000000 8.591347323 13.432330293 18.996183675
   401   1 0.000000 25.774041968 26.864660587 18.996183675
   402   1 0.000000 20.046477086 13.432330293 18.996183675
   403   1 0.000000 31.501606849 26.864660587 18.996183675
   404   1 0.000000 25.774041968 13.432330293 18.996183675
   405   1 0.000000 42.956736613 26.864660587 18.996183675
   406   1 0.000000 37.229171731 13.432330293 18.996183675
   407   1 0.000000 20.046477086 26.864660587 18.996183675
   408   1 0.000000 14.318912204 13.432330293 18.996183675
   409   1 0.000000 25.774041968 3.663362807 20.723109464
   410   1 0.000000 31.501606849 17.095693101 20.723109464
   411   1 0.000000 2.863782441 3.663362807 20.723109464
   412   1 0.000000 8.591347323 17.095693101 20.723109464
   413   1 0.000000 14.318912204 3.663362807 20.723109464
   414   1 0.000000 20.046477086 17.095693101 20.723109464
   415   1 0.000000 34.365389290 21.980176844 19.859646569
   416   1 0.000000 28.637824408 8.547846550 19.859646569
   417   1 0.000000 11.455129763 21.980176844 19.859646569
   418   1 0.000000 5.727564882 8.547846550 19.859646569
   419   1 0.000000 22.910259527 21.980176844 19.859646569
   420   1 0.000000 17.182694645 8.547846550 19.859646569
   421   1 0.000000 28.637824408 18.316814036 18.132720781
   422   1 0.000000 22.910259527 4.884483743 18.132720781
   423   1 0.000000 40.092954172 18.316814036 18.132720781
   424   1 0.000000 34.365389290 4.884483743 18.132720781
   425   1 0.000000 17.182694645 18.316814036 18.132720781
   426   1 0.000000 11.455129763 4.884483743 18.132720781
   427   1 0.000000 28.637824408 21.980176844 19.859646569
   428   1 0.000000 22.910259527 8.547846550 19.859646569
   429   1 0.000000 40.092954172 21.980176844 19.859646569
   430   1 0.000000 34.365389290 8.547846550 19.859646569
   431   1 0.000000 17.182694645 21.980176844 19.859646569
   432   1 0.000000 11.455129763 8.547846550 19.859646569
   433   1 0.000000 31.501606849 25.643539651 21.586572358
   434   1 0.000000 25.774041968 12.211209358 21.586572358
   435   1 0.000000 42.956736613 25.643539651 21.586572358
   436   1 0.000000 37.229171731 12.211209358 21.586572358
   437   1 0.000000 20.046477086 25.643539651 21.586572358
   438   1 0.000000 14.318912204 12.211209358 21.586572358
   439   1 0.000000 25.774041968 25.643539651 21.586572358
   440   1 0.000000 20.046477086 12.211209358 21.586572358
   441   1 0.000000 37.229171731 25.643539651 21.586572358
   442   1 0.000000 31.501606849 12.211209358 21.586572358
   443   1 0.000000 14.318912204 25.643539651 21.586572358
   444   1 0.000000 8.591347323 12.211209358 21.586572358
   445   1 0.000000 25.774041968 15.874572165 23.313498147
   446   1 0.000000 20.046477086 2.442241872 23.313498147
   447   1 0.000000 37.229171731 15.874572165 23.313498147
   448   1 0.000000 31.501606849 2.442241872 23.313498147
   449   1 0.000000 14.318912204 15.874572165 23.313498147
   450   1 0.000000 8.591347323 2.442241872 23.313498147
   451   1 0.000000 28.637824408 20.759055908 22.450035252
   452   1 0.000000 22.910259527 7.326725615 22.450035252
   453   1 0.000000 40.092954172 20.759055908 22.450035252
   454   1 0.000000 34.365389290 7.326725615 22.450035252
   455   1 0.000000 17.182694645 20.759055908 22.450035252
   456   1 0.000000 11.455129763 7.326725615 22.450035252
   457   1 0.000000 22.910259527 17.095693101 20.723109464
   458   1 0.000000 17.182694645 3.663362807 20.723109464
   459   1 0.000000 34.365389290 17.095693101 20.723109464
   460   1 0.000000 28.637824408 3.663362807 20.723109464
   461   1 0.000000 11.455129763 17.095693101 20.723109464
   462   1 0.000000 5.727564882 3.663362807 20.723109464
   463   1 0.000000 22.910259527 20.759055908 22.450035252
   464   1 0.000000 17.182694645 7.326725615 22.450035252
   465   1 0.000000 34.365389290 20.759055908 22.450035252
   466   1 0.000000 28.637824408 7.326725615 22.450035252
   467   1 0.000000 11.455129763 20.759055908 22.450035252
   468   1 0.000000 5.727564882 7.326725615 22.450035252
   469   1 0.000000 24.342150747 1.221120936 21.154840911
   470   1 0.000000 30.069715629 14.653451229 21.154840911
   471   1 0.000000 1.431891220 1.221120936 21.154840911
   472   1 0.000000 7.159456102 14.653451229 21.154840911
   473   1 0.000000 12.887020984 1.221120936 21.154840911
   474   1 0.000000 18.614585866 14.653451229 21.154840911
   475   1 0.000000 18.614585866 1.221120936 21.154840911
   476   1 0.000000 24.342150747 14.653451229 21.154840911
   477   1 0.000000 30.069715629 1.221120936 21.154840911
   478   1 0.000000 35.797280511 14.653451229 21.154840911
   479   1 0.000000 7.159456102 1.221120936 21.154840911
   480   1 0.000000 12.887020984 14.653451229 21.154840911
   481   1 0.000000 30.069715629 18.316814036 22.881766699
   482   1 0.000000 24.342150747 4.884483743 22.881766699
   483   1 0.000000 41.524845392 18.316814036 22.881766699
   484   1 0.000000 35.797280511 4.884483743 22.881766699
   485   1 0.000000 18.614585866 18.316814036 22.881766699
   486   1 0.000000 12.887020984 4.884483743 22.881766699
   487   1 0.000000 32.933498070 23.201297779 22.018303805
   488   1 0.000000 27.205933188 9.768967486 22.018303805
   489   1 0.000000 10.023238543 23.201297779 22.018303805
   490   1 0.000000 4.295673661 9.768967486 22.018303805
   491   1 0.000000 21.478368306 23.201297779 22.018303805
   492   1 0.000000 15.750803425 9.768967486 22.018303805
   493   1 0.000000 24.342150747 18.316814036 22.881766699
   494   1 0.000000 18.614585866 4.884483743 22.881766699
   495   1 0.000000 35.797280511 18.316814036 22.881766699
   496   1 0.000000 30.069715629 4.884483743 22.881766699
   497   1 0.000000 12.887020984 18.316814036 22.881766699
   498   1 0.000000 7.159456102 4.884483743 22.881766699
   499   1 0.000000 27.205933188 23.201297779 22.018303805
   500   1 0.000000 21.478368306 9.768967486 22.018303805
   501   1 0.000000 38.661062951 23.201297779 22.018303805
   502   1 0.000000 32.933498070 9.768967486 22.018303805
   503   1 0.000000 15.750803425 23.201297779 22.018303805
   504   1 0.000000 10.023238543 9.768967486 22.018303805
   505   1 0.000000 21.478368306 1.221120936 21.154840911
   506   1 0.000000 27.205933188 14.653451229 21.154840911
   507   1 0.000000 32.933498070 1.221120936 21.154840911
   508   1 0.000000 38.661062951 14.653451229 21.154840911
   509   1 0.000000 10.023238543 1.221120936 21.154840911
   510   1 0.000000 15.750803425 14.653451229 21.154840911