LAMMPS (13 Jan 2016)
Reading data file ...
  triclinic box = (0 0 0) to (34.3654 26.8647 46.627) with tilt (11.4551 0 0)
  1 by 1 by 1 MPI processor grid
  reading atoms ...
  1152 atoms
Neighbor list info ...
  1 neighbor list requests
  update every 1 steps, delay 0 steps, check yes
  max neighbors/atom: 2000, page size: 100000
  master list distance cutoff = 7.72488
  ghost atom cutoff = 7.72488
Setting up cg style minimization ...
  Unit style: metal
Memory usage per processor = 3.40572 Mbytes
Step Temp Press CPU Pxx Pyy Pzz Pxy Pxz Pyz KinEng PotEng TotEng Volume Lx Ly Lz Atoms 
       0            0   -11276.651            0   -12024.859   -11863.843   -9941.2505 1.4512371e-06 2.8822652e-08   -182.63561            0   -3779.8751   -3779.8751     43046.72    34.365389    26.864661    46.626996     1152 
       1            0   -10379.613 0.0040020943   -11095.453   -10932.107   -9111.2801  -0.75447601 -0.011966729   -186.80855            0   -3780.6989   -3780.6989    42925.728    34.331024    26.838156    46.588449     1152 
       2            0   -9472.2559 0.0080111027   -10154.221   -9989.0303   -8273.5159   -1.6100252 -0.027343573   -191.03299            0   -3781.4512   -3781.4512    42805.265    34.296659    26.811687    46.550166     1152 
       3            0   -8554.7772  0.012027025   -9201.2262   -9034.7672   -7428.3383   -2.5834873 -0.046863233   -195.31866            0   -3782.1315   -3782.1315    42685.372    34.262293     26.78526    46.512189     1152 
       4            0   -7627.5071  0.016052961   -8236.6294   -8069.6008   -6576.2912   -3.6956561 -0.071273617   -199.66797            0   -3782.7395   -3782.7395    42566.106    34.227928    26.758882    46.474566     1152 
       5            0   -6691.1917   0.02008009   -7260.9622   -7094.1967   -5718.4161   -4.9735259  -0.10207205   -204.11176            0   -3783.2748   -3783.2748    42447.542    34.193562    26.732564    46.437366     1152 
       6            0    -5746.729  0.024113894   -6274.8453   -6109.3803   -4855.9613   -6.4534335  -0.14070969   -208.64299            0   -3783.7373   -3783.7373     42329.78    34.159197    26.706319    46.400679     1152 
       7            0   -4795.2339  0.028141022   -5278.9831   -5116.1349   -3990.5838   -8.1878729  -0.18900137   -213.29764            0   -3784.1268   -3784.1268    42212.968    34.124832    26.680165    46.364637     1152 
       8            0   -3838.5744  0.032185078   -4274.6617   -4116.1431   -3124.9183   -10.253677  -0.24932692   -218.11919            0   -3784.4434   -3784.4434    42097.328    34.090466    26.654133    46.329438     1152 
       9            0   -2880.0692  0.049341917   -3264.2602   -3112.4608   -2263.4866   -12.771425  -0.32631604   -223.12899            0   -3784.6876   -3784.6876    41983.222    34.056101    26.628269    46.295408     1152 
      10            0   -1925.5899  0.053393126   -2251.9299   -2110.3968   -1414.4429   -15.971319  -0.42630001   -228.47024            0   -3784.8603   -3784.8603    41871.313    34.021735    26.602659    46.263137     1152 
      11            0   -987.65698  0.057465076   -1246.5804    -1121.327   -595.06355   -20.317124  -0.56345811    -234.3145            0   -3784.9635   -3784.9635    41763.047     33.98737    26.577489    46.233916     1152 
      12            0   -105.01111  0.061538935   -275.88605    -180.5182    141.37093   -27.260466  -0.78173141    -241.3249            0   -3785.0029   -3785.0029    41662.882    33.953005    26.553331    46.211716     1152 
      13            0    195.32542  0.069652081    167.30221    185.76388    232.91018   -42.760923   -1.2080344   -250.90121            0   -3785.0084   -3785.0084    41630.744    33.930124    26.541632    46.227574     1152 
      14            0   -65.129113  0.077780962     60.37502   -17.055948   -238.70641   -61.323722   -1.6388324   -260.64245            0   -3785.0139   -3785.0139    41662.844    33.922133    26.542911    46.271886     1152 
      15            0    59.215518  0.081893921    59.137731     376.4522   -257.94338    22.211678   0.59026516   -259.40395            0   -3785.5631   -3785.5631    41667.276    33.930844    26.516046    46.311802     1152 
      16            0   -145.97207  0.086241007    -161.2189   -97.032222    -179.6651    -33.41591  -0.91578937   -231.69964            0   -3785.5831   -3785.5831    41687.982      33.9365    26.542911    46.280204     1152 
      17            0     198.4068   0.09445405    200.48479    156.91327    237.82235   -57.497956   -1.6519962   -222.41666            0    -3785.588    -3785.588    41647.964    33.924314    26.543043    46.252157     1152 
      18            0    433.26877  0.098585129     466.4001    120.44577    712.96044   -124.05747    -3.832576   -194.84914            0   -3785.5964   -3785.5964    41619.425    33.912649    26.560753     46.20553     1152 
      19            0   -103.54643    0.1027081   -68.874373   -594.14423    352.37932   -162.41048   -5.0439754   -176.87068            0   -3785.6204   -3785.6204     41679.83    33.926464    26.587618    46.207014     1152 
      20            0   -116.35951   0.10683298   -88.863963   -300.41188    40.197318   -93.710918   -2.7194995   -205.88462            0   -3785.6608   -3785.6608    41685.102    33.929431    26.561853    46.253641     1152 
      21            0     160.5509   0.11499095    180.33357     101.3522    199.96694   -65.183874   -1.8749457   -217.62965            0   -3785.6649   -3785.6649    41654.756    33.923134    26.545236    46.257487     1152 
      22            0   -47.417944     0.123137   -77.320596    126.78418   -191.71741   -3.2201975 -0.078693408    -239.6869            0   -3785.6709   -3785.6709    41680.832    33.935607        26.53    46.296003     1152 
      23            0   -9.1925378   0.12726808   -392.34616    299.21065    65.557894    98.505697    2.8107577   -224.21575            0   -3786.0922   -3786.0922    41689.134    33.969973    26.515869    46.283032     1152 
      24            0    22.875401    0.1313889   -52.351613    86.886951    34.090865   -19.477943  -0.54003509   -206.67299            0   -3786.1173   -3786.1173     41686.33    33.935607    26.536575    46.290638     1152 
      25            0   -209.48695   0.13961005   -68.077612   -338.65857   -221.72466   -106.24106   -3.0063486   -192.82865            0   -3786.1219   -3786.1219    41713.414    33.918678    26.558533    46.305516     1152 
      26            0   -11.916145    0.1478529    237.77372   -217.19717   -56.324985   -145.56487   -4.1851905   -187.27151            0   -3786.1277   -3786.1277    41691.359    33.901495    26.560907    46.300353     1152 
      27            0    152.15141   0.15196896    78.015055    212.30679     166.1324   -20.844005  -0.58428209   -204.98916            0   -3786.1412   -3786.1412     41672.39     33.93168    26.534042    46.284933     1152 
      28            0   -164.57469   0.16013908   -319.96379    -56.27738    -117.4829    7.0959114    0.2197999   -207.96053            0   -3786.1451   -3786.1451    41708.565    33.949386    26.536617    46.296459     1152 
      29            0     -825.938   0.16426611   -1029.2095   -611.68766   -836.91686    41.212664    1.1187051   -214.40447            0   -3786.1996   -3786.1996    41788.561    33.973734    26.541728    46.343086     1152 
      30            0    21.287405   0.16839409   -86.159956    283.51885   -133.49668    30.350695   0.86244607   -216.77235            0   -3786.3059   -3786.3059    41695.503    33.939369    26.519442    46.325603     1152 
      31            0   -18.379913   0.17252898    1.7764883   -61.521758    4.6055313   -63.290458   -1.8138273   -188.88166            0   -3786.3197   -3786.3197    41698.266    33.925388    26.546307    46.300861     1152 
      32            0    862.19416   0.18072796    869.87349     860.3677     856.3413   -53.334957   -1.6090119   -188.71075            0   -3786.3476   -3786.3476    41600.316    33.901807    26.523598    46.263804     1152 
      33            0    1750.4858   0.18485498    1634.4698    1833.7307     1783.257   -11.106413  -0.33272416   -183.11802            0    -3786.467    -3786.467     41507.83    33.889069    26.496734     46.22512     1152 
      34            0    813.75829   0.18897796    612.76727    882.85041    945.65717    4.5715453   0.17481547    -175.2394            0   -3786.6676   -3786.6676    41617.013    33.923434    26.517392    46.263691     1152 
      35            0   -32.037601   0.19717407   -194.05932    -9.457311    107.40383   -12.340994  -0.33537427    -172.7629            0    -3786.693    -3786.693    41713.366    33.943211    26.539667    46.304889     1152 
      36            0    1.9029182      0.20541    93.564503    -10.14174   -77.714009   -72.428117    -2.059932   -175.44825            0   -3786.6972   -3786.6972    41711.937    33.915901    26.542565    46.335527     1152 
      37            0    -251.7915   0.20957899   -81.960156   -524.25078   -149.16357   -146.60697   -4.3735612   -132.03149            0   -3787.0867   -3787.0867     41756.14    33.911477     26.56943    46.343774     1152 
      38            0    297.28385   0.21377492    382.15407    197.30806    312.38943   -92.326026   -2.7715259   -145.36329            0   -3787.1058   -3787.1058     41694.81    33.905732    26.542565    46.330392     1152 
      39            0    425.74733   0.21791291    322.16752    605.90755     349.1669    8.1160579   0.28602919   -167.75815            0   -3787.1239   -3787.1239    41682.333    33.923072    26.515701    46.339756     1152 
      40            0   -246.20199    0.2261529   -443.18128    3.8781762   -299.30287    43.973676     1.294249   -172.88785            0   -3787.1404   -3787.1404    41759.959     33.95221    26.523957    46.371772     1152 
      41            0   -789.85481     0.230299   -879.82876    -715.8804   -773.85527   -16.344021  -0.41196284   -156.21582            0   -3787.1752   -3787.1752    41824.345    33.955305    26.550822    46.392048     1152 
      42            0   -193.38013   0.23446107   -126.55319   -263.44058   -190.14662   -81.612808    -2.361532   -142.23099            0     -3787.24     -3787.24    41757.441     33.92094    26.550351    46.365585     1152 
      43            0    44.991347   0.24271297    95.381262    6.2994285     33.29335   -71.754199   -2.0960635   -144.45384            0   -3787.2422   -3787.2422    41730.232    33.916088    26.542465    46.355768     1152 
      44            0   -12.913583   0.25095296   -236.08222    163.54242    33.799049    32.384528     1.007102   -159.10619            0   -3787.2479   -3787.2479    41736.822    33.947249    26.524795    46.351389     1152 
      45            0    90.869362   0.25511599   -71.075618    429.19211   -85.508407    54.289915    1.6247194   -163.33795            0    -3787.524    -3787.524     41741.25    33.937589    26.508494    46.398016     1152 
      46            0   -160.77332    0.2592721   -211.06646   -74.001859   -197.25165   -24.046506  -0.64523981   -140.61971            0   -3787.5377   -3787.5377    41768.753     33.93159    26.535359    46.389783     1152 
      47            0    130.05937   0.26755595    168.18357     74.26144    147.73311   -74.267603   -2.2063994   -127.50172            0   -3787.5419   -3787.5419    41734.777    33.913343    26.541327    46.366558     1152 
      48            0    177.99423   0.27585196    325.89967   -102.32288    310.40589   -146.40159   -4.5667504   -106.83771            0   -3787.5439   -3787.5439    41728.351    33.899291    26.559531    46.346848     1152 
      49            0   -307.23222   0.28414512   -160.20331   -658.64638   -102.84698   -160.92164   -4.9467245   -100.18274            0   -3787.5521   -3787.5521     41784.05    33.912509    26.576202    46.361523     1152 
      50            0   -371.96669   0.28831196   -398.69269   -397.63639   -319.57099   -53.629469   -1.5274332   -126.47896            0   -3787.6111   -3787.6111    41796.027    33.934051    26.549338    46.392267     1152 
      51            0    56.635644   0.29657602    47.311657    61.393916    61.201358   -51.284719   -1.4864379   -128.97582            0   -3787.6178   -3787.6178    41747.255     33.92029    26.537502    46.377606     1152 
      52            0      428.576   0.30075407    655.57272    513.20613    116.94917   -83.275274   -2.3874084   -140.44675            0   -3787.6493   -3787.6493    41710.596    33.885925    26.523316    46.408682     1152 
      53            0   -461.32498   0.30493593   -224.93503   -404.47911   -754.56079   -89.920959   -2.4313229   -137.96592            0   -3787.6923   -3787.6923    41815.324    33.909444      26.5448    46.455309     1152 
      54            0   -795.65289   0.30910802   -811.85366   -824.47755   -750.62745   -56.645108   -1.5662246   -116.48681            0   -3787.8208   -3787.8208    41857.572    33.943809    26.558335    46.431489     1152 
      55            0    139.95439   0.31328893    95.643418    132.66113    191.55862   -47.914346    -1.403457   -114.02775            0   -3787.8773   -3787.8773    41751.204    33.920108    26.536003    46.384862     1152 
      56            0    642.37938   0.31747508    785.15621    673.21677    468.76516   -80.115992   -2.4026108   -109.06402            0   -3788.1028   -3788.1028    41710.674    33.885743    26.521892     46.41151     1152 
      57            0   -183.10744     0.321666    -49.46959   -183.48263   -316.37011   -84.177614   -2.4100936   -101.60812            0   -3788.2323   -3788.2323    41812.671    33.908847    26.541967    46.458137     1152 
      58            0   -69.925386   0.32583594   -315.28223   -72.424477    177.93055   -7.8376221  -0.13041129   -77.788009            0   -3788.4699   -3788.4699    41812.235    33.943212    26.537959    46.417626     1152 
      59            0    424.01674   0.33002496    368.69965    437.64503    465.70553    -45.24419   -1.3318255   -75.273724            0   -3788.5894   -3788.5894    41767.529    33.908847    26.526117    46.435709     1152 
      60            0    367.77859   0.33423591    521.63759    372.28023    209.41796   -91.166189   -2.7301871   -71.996461            0   -3788.7093   -3788.7093    41787.066    33.887951    26.528251    46.482336     1152 
      61            0   -47.510049   0.34257412    43.129382   -58.551972   -127.10756   -80.783113   -2.3650273   -69.984339            0   -3788.7158   -3788.7158    41834.055    33.905933    26.538327    46.492267     1152 
      62            0   -16.211883   0.35088611   -67.525082   -11.834311    30.723745   -48.132743   -1.3816225   -67.759991            0   -3788.7177   -3788.7177     41828.94    33.919791    26.535962    46.471731     1152 
      63            0    178.67398   0.35922313    153.31688    189.42387    193.28119    -52.45862   -1.5307021   -68.463376            0   -3788.7191   -3788.7191    41806.989    33.911661    26.531297    46.466648     1152 
      64            0      101.687   0.36343193    392.28779    64.774087   -152.00088   -128.07836   -3.7747341    -71.70406            0    -3788.742    -3788.742    41821.227    33.880932    26.537774    46.513275     1152 
      65            0   -351.02509   0.36763597   -271.50083   -380.05585   -401.51861   -82.056065   -2.3635022   -68.063719            0   -3788.7562   -3788.7562    41871.913    33.915298    26.546312    46.507498     1152 
      66            0    -204.7615   0.37181807   -451.03039   -177.32795    14.073853   -2.5817983  0.070316891   -64.850489            0   -3788.7735   -3788.7735    41852.849    33.945226    26.537437    46.460871     1152 
      67            0    148.03799   0.38013005   -4.3781156    180.12844    268.36365   -21.636423  -0.54673648   -66.620754            0   -3788.7785   -3788.7785    41813.345    33.925513    26.529711    46.457513     1152 
      68            0    64.197008   0.38847995    152.48147    53.405727   -13.296169   -80.713094   -2.3776413   -68.535533            0   -3788.7824   -3788.7824    41825.618    33.902769    26.535789    46.491674     1152 
      69            0   -80.342513   0.39681602    -20.84658    -94.44978   -125.73118   -75.234796   -2.1946122   -67.880797            0   -3788.7833   -3788.7833    41841.979    33.909762    26.539107    46.494457     1152 
      70            0   -20.993493   0.40511799   -134.77417   -3.7317648    75.525454   -32.626674  -0.88790247   -66.459151            0    -3788.786    -3788.786    41833.553    33.926177    26.534696    46.470324     1152 
      71            0    258.56287    0.4134531    200.25048    282.21367    293.22446   -43.218897   -1.2373803   -67.640832            0   -3788.7889   -3788.7889    41802.349    33.912596    26.528295    46.465468     1152 
      72            0    143.58787   0.41767192    403.43942    107.70091   -80.376716   -121.85956   -3.6096459   -69.930468            0   -3788.8087   -3788.8087    41820.451    33.882656    26.536606    46.512095     1152 
      73            0   -251.84133     0.426018   -130.31017   -286.14274   -339.07107   -92.284647   -2.6759522   -67.595524            0    -3788.816    -3788.816    41864.825    33.907897    26.544636    46.512711     1152 
      74            0   -195.72083   0.43431997   -411.69441   -169.93789   -5.5301769   -9.4268427  -0.14013356   -64.832883            0    -3788.825    -3788.825    41855.548    33.941608    26.537391    46.468902     1152 
      75            0    124.31663   0.44263005   -57.481106    162.21464    268.21636   -14.412524  -0.30534845   -65.999432            0   -3788.8287   -3788.8287    41819.227    33.929055    26.529573    46.459441     1152 
      76            0     75.06849   0.45097804     185.3358    60.310528   -20.440858   -86.337675   -2.5451178   -68.096877            0   -3788.8343   -3788.8343    41828.131    33.899967    26.535871    46.498167     1152 
      77            0   -102.93904   0.45932412   -12.347158   -124.34661   -172.12334   -83.412239   -2.4330824   -67.445724            0   -3788.8354   -3788.8354    41848.477    33.906928    26.540217    46.503618     1152 
      78            0    -61.75233    0.4676311   -224.42518   -37.505247    76.673438    -21.09577  -0.51293933   -65.481632            0   -3788.8406   -3788.8406    41841.543    33.932212    26.534764    46.470815     1152 
      79            0    221.90107   0.47594905    89.648157    257.03575    319.01929   -25.518505  -0.66337091   -66.505674            0   -3788.8436   -3788.8436    41809.555    33.921102    26.527828    46.462641     1152 
      80            0    160.46822   0.48016405    369.42665    133.69647   -21.718474   -109.60072   -3.2500418     -68.9253            0   -3788.8614   -3788.8614    41821.464    33.887251    26.535262    46.509268     1152 
      81            0   -194.90609   0.48851204   -64.974024   -228.09049   -291.65377   -94.063617   -2.7337594   -67.270697            0   -3788.8665   -3788.8665    41861.769    33.905237    26.543255    46.515384     1152 
      82            0    -237.5936   0.49270105   -425.19101   -218.92871   -68.661094   -16.986155   -0.3712912   -64.453544            0   -3788.8748   -3788.8748    41864.087    33.939602    26.538899    46.478485     1152 
      83            0    105.13879   0.50099707   -95.309714    145.27262    265.45345   -10.209507  -0.16033751     -65.3518            0   -3788.8791   -3788.8791    41824.745    33.931335    26.529667    46.462284     1152 
      84            0    149.99217   0.50520897     267.1118    138.37021    44.494508   -87.402531   -2.5819975    -67.86876            0    -3788.887    -3788.887    41823.307     33.89697     26.53393    46.500318     1152 
      85            0   -90.160604   0.51356912    31.342184   -116.16632   -185.65768   -91.024896   -2.6570612     -67.2608            0    -3788.889    -3788.889    41851.087    33.903131    26.540329    46.511531     1152 
      86            0    -184.1692   0.52189112   -351.87361   -165.97264   -34.661337   -21.379312  -0.50882688   -64.580764            0   -3788.8958   -3788.8958    41859.512    33.935935    26.537811    46.480335     1152 
      87            0    120.62189   0.53019905   -90.121081    163.34166    288.64509   -7.6105298 -0.072415407   -65.150253            0   -3788.8994   -3788.8994    41824.323    33.931893    26.529055    46.462123     1152 
      88            0    214.66341   0.53440499     308.1347     210.9876    124.86792    -81.00111   -2.3928318   -67.635485            0   -3788.9146   -3788.9146    41817.618    33.897527    26.531762    46.497027     1152 
      89            0   -117.89479   0.54276204   -21.103104   -141.09029   -191.49099   -85.367705    -2.481613   -66.752295            0   -3788.9184   -3788.9184    41856.093    33.906349    26.540576    46.512245     1152 
      90            0   -449.66011   0.55109406   -571.20905   -454.90009   -322.87118   -35.751463  -0.94122538   -63.837648            0   -3788.9261   -3788.9261    41893.161    33.938376    26.545605    46.500696     1152 
      91            0   -92.149831   0.55529189   -478.71559   -33.265529    235.53163    32.627168    1.2639137   -62.794356            0   -3788.9471   -3788.9471    41851.001    33.956077     26.53167    46.454069     1152 
      92            0    211.13557   0.55948305    71.318362    246.85813    315.23022   -24.243053  -0.60317019   -65.460043            0   -3788.9584   -3788.9584    41818.829    33.921712    26.527808    46.472148     1152 
      93            0   -63.183835     0.567837   -56.839649   -67.529189   -65.182666   -62.813443    -1.799406   -65.839965            0   -3788.9624   -3788.9624    41851.939    33.914084    26.537486    46.502437     1152 
      94            0  -0.84954861   0.57620001     103.8427   -18.723406   -87.667944   -86.218139     -2.51855   -66.813887            0   -3788.9629   -3788.9629    41845.892    33.902102    26.537551    46.512038     1152 
      95            0    460.49042   0.58453107    416.60874    491.57581    473.28671   -45.657963   -1.3034459   -66.505745            0   -3788.9729   -3788.9729    41792.631    33.904712    26.523091    46.474585     1152 
      96            0    265.17183   0.58872104   -57.746445    328.84416    524.41778    19.622741   0.85435583   -63.528301            0    -3789.001    -3789.001    41814.429    33.939077    26.523698    46.450679     1152 
      97            0   -138.82842   0.59703994   -326.45047   -118.06473    28.029953   -17.199789  -0.35759677   -63.490724            0   -3789.0083   -3789.0083    41862.223    33.936247    26.536373    46.485436     1152 
      98            0    1.5394747   0.60539699    13.924952  -0.34539695   -8.9611307   -63.828476   -1.8305472   -65.794583            0   -3789.0115   -3789.0115    41848.164    33.911442    26.535816    46.504791     1152 
      99            0    674.58769   0.60959506    449.15915    741.39045    833.21347    -1.223188   0.18870861    -64.73309            0    -3789.133    -3789.133    41779.567    33.916807    26.514713    46.458164     1152 
     100            0   -316.06586   0.61378813   -561.46767      -301.98   -84.749915   -7.1736168  0.011462463   -61.691979            0    -3789.205    -3789.205    41898.098    33.946295    26.540202    46.504791     1152 
     101            0   -380.28779   0.61800289   -352.86045   -406.14256   -381.86035   -72.601925   -2.0164168   -64.867395            0   -3789.2795   -3789.2795    41914.996    33.919112    26.545569    46.551418     1152 
     102            0    132.44803   0.62637401    186.13537    132.20628    79.002454   -73.399407   -2.0969033   -66.498426            0    -3789.289    -3789.289    41856.572    33.902147    26.532417    46.532848     1152 
     103            0    532.13678   0.63472795    486.38595    570.19494    539.82944   -45.237759   -1.2346567   -66.650672            0    -3789.296    -3789.296      41811.2    33.901351    26.520336    46.504673     1152 
     104            0    366.73369   0.63892293    32.526244    438.80588    628.86896    22.177475     1.037618   -63.854617            0   -3789.3377   -3789.3377    41831.435    33.935717    26.520101    46.480476     1152 
     105            0   -115.95628     0.647264   -334.16703   -89.289977     75.58816   -11.040099 -0.081253512   -63.383997            0   -3789.3472   -3789.3472    41888.122     33.93709     26.53459    46.516166     1152 
     106            0   0.94435721   0.65563393    7.8489217  -0.46991306    -4.545937   -64.036353   -1.7808721   -65.822788            0   -3789.3509   -3789.3509    41877.038    33.910294    26.535072     46.53976     1152 
     107            0   -100.15979   0.65984297   -151.14914    78.100988   -227.43121   -12.525688 -0.060838293   -87.097595            0   -3789.4821   -3789.4821    41903.244    33.919474    26.521433    46.580222     1152 
     108            0    258.43925   0.66821909    270.76455    269.76074    234.79246   -63.254147   -1.7431691   -70.030573            0   -3789.4887   -3789.4887    41860.828      33.9018    26.528059    46.545703     1152 
     109            0    325.84338    0.6766119    393.10121    132.80104    451.62788   -119.89842   -3.7507062   -49.849388            0   -3789.4909   -3789.4909    41851.764     33.89295     26.54405    46.519732     1152 
     110            0   -86.797461     0.685004   -24.725004   -358.73296    123.06558   -135.36247   -4.2371108   -43.102738            0    -3789.497    -3789.497    41899.008    33.904483    26.559661     46.52904     1152 
     111            0   -195.25344   0.68921709   -222.37921   -127.39591   -235.98519   -41.776596  -0.98326858   -77.232285            0   -3789.5108   -3789.5108        41916    33.918814    26.532796    46.575352     1152 
     112            0    53.826955   0.69757795    32.432013    157.98397   -28.935117   -35.422477    -0.790052   -80.404735            0   -3789.5131   -3789.5131    41887.763     33.91144    26.524402     46.56883     1152 
     113            0    174.77241   0.70597005    203.21991    88.397898    232.69943   -88.086589   -2.5867926    -61.25768            0   -3789.5158   -3789.5158    41872.196      33.9017     26.53808    46.540898     1152 
     114            0   -46.499066   0.71435809    -13.58293   -208.95043    83.036161   -105.34763   -3.1637544    -54.23863            0   -3789.5176   -3789.5176    41897.146    33.906941    26.549318    46.541722     1152 
     115            0   -236.05319   0.72271895   -274.22802    -103.2886   -330.64295   -25.112352  -0.43632699      -84.567            0   -3789.5263   -3789.5263    41923.344    33.921401    26.528064    46.588268     1152 
     116            0    74.040286   0.73106909    30.942958    312.59759   -121.41968   -1.2813215    0.3110829   -94.794287            0   -3789.5306   -3789.5306    41889.231    33.913818    26.512473     46.58815     1152 
     117            0    267.07865     0.735291    289.05881    194.73285    317.44428   -83.930343    -2.448852   -63.403978            0   -3789.5464   -3789.5464    41865.034    33.899667    26.534776    46.541523     1152 
     118            0   -116.68336   0.74370003   -100.71774   -264.17426    14.841911   -98.496798   -2.9092262   -56.892715            0   -3789.5518   -3789.5518    41908.968     33.91053    26.549388    46.549804     1152 
     119            0   -565.40785   0.74792504   -575.70812   -561.53448   -558.98095   -58.813298   -1.4761073   -74.689588            0   -3789.5647   -3789.5647    41965.567    33.926676    26.546003    46.596431     1152 
     120            0   -241.80729   0.75213194   -250.88127   -4.9985201   -469.54207   -8.3179815   0.12867587   -99.571053            0   -3789.5976   -3789.5976    41934.355    33.918675    26.519138    46.619938     1152 
     121            0    100.78465   0.76050496    106.23848    254.11897    -58.00351   -30.431883  -0.58304698   -89.812911            0   -3789.6025   -3789.6025    41893.473    33.907044    26.518957    46.590782     1152 
     122            0   -1.0060248     0.768893   -3.3117768   -4.9193445    5.2130467    -63.39586   -1.6845781   -73.248022            0   -3789.6047   -3789.6047    41903.003     33.90972    26.534434    46.570523     1152 
     123            0     140.2558   0.77312398    421.76136   -40.276723    39.282755   -161.07369   -4.8843983   -62.809612            0   -3789.6155   -3789.6155    41889.903    33.875355    26.547044    46.581057     1152 
     124            0   -559.35524   0.78152895   -402.52418   -714.65744    -560.8841   -128.37828   -3.6663809   -66.670655            0   -3789.6351   -3789.6351    41973.095    33.907649    26.559576     46.60711     1152 
     125            0   -798.24932   0.78574896   -900.49444   -799.21459   -695.03894   -40.450142  -0.84216125   -80.046133            0   -3789.6705   -3789.6705    42005.057    33.942014    26.550601    46.611128     1152 
     126            0    46.814573   0.78996706   -96.313562    145.82368    90.933606   -11.548822  0.063863397   -87.926472            0     -3789.71     -3789.71    41909.278    33.922851    26.523737    46.578246     1152 
     127            0    76.149768    0.7942059    245.16167   -23.708192     6.995825   -119.99937    -3.479664   -75.708853            0   -3789.7166   -3789.7166    41908.292    33.888486     26.54076    46.594477     1152 
     128            0   -178.72896   0.80261707    99.059359   -375.31034   -259.93591   -163.08691   -4.8193066   -70.097362            0   -3789.7188   -3789.7188     41939.13    33.883702    26.554721    46.610829     1152 
     129            0   -589.01309   0.80686307   -125.74365   -994.70236   -646.59326   -245.90211   -7.3841857   -61.025812            0   -3789.7591   -3789.7591    41996.367     33.87407    26.581585    46.640528     1152 
     130            0    213.60904   0.81110692    599.40932   -88.179923    129.59771    -209.1626   -6.4769519   -70.703615            0   -3789.8169   -3789.8169    41909.549    33.860147    26.554721    46.610355     1152 
     131            0    49.507165   0.81535292    155.42502   -52.771617    45.868093   -107.37108   -3.0170077   -86.666874            0   -3789.8435   -3789.8435    41929.962    33.894513     26.54046    46.610808     1152 
     132            0   -59.735793    0.8237431   -24.708435   -103.20389    -51.29505    -79.54358   -2.0708792   -91.461186            0   -3789.8447   -3789.8447    41942.564    33.905249    26.537615     46.61505     1152 
     133            0    1.0753651    0.8321321   -4.1348978     4.362978    2.9980149   -61.037086   -1.4625223   -95.135563            0   -3789.8452   -3789.8452    41935.604       33.908    26.532231    46.612989     1152 
     134            0    84.924691   0.84054494    214.11892    102.37495   -61.719797   -85.757267   -2.2229514   -100.72131            0   -3789.8468   -3789.8468    41928.294    33.891837    26.529543    46.631815     1152 
     135            0   -216.93649   0.84899211   -20.822926    -211.1886   -418.79793   -101.36828   -2.6295489   -104.05283            0   -3789.8504   -3789.8504    41965.169     33.89319    26.537069    46.657727     1152 
     136            0   -183.29597   0.85323811   -40.168678   -189.45742   -320.26182   -91.923224   -2.2978567   -115.13278            0    -3789.917    -3789.917    41969.185    33.897022    26.536265     46.65833     1152 
     137            0    50.055686    0.8616569    147.07548    55.883722   -52.792144   -80.269727   -1.9781806    -114.1591            0   -3789.9193   -3789.9193    41941.478    33.895358    26.530138    46.640586     1152 
     138            0  -0.93559728   0.87004709   -3.5281302   0.71510351 0.0062348925   -60.531801   -1.3599793   -111.14701            0   -3789.9205   -3789.9205        41946     33.90705    26.531322    46.627449     1152 
     139            0    86.033757   0.87846708    100.06713    26.086721    131.94742   -77.732737   -1.9663617    -104.9425            0   -3789.9209   -3789.9209    41935.345    33.902502    26.534721    46.615886     1152 
     140            0   -66.304547   0.88689208   -39.204144    -229.7602      70.0507   -102.86985    -2.837437   -95.598834            0    -3789.922    -3789.922     41952.17    33.904732    26.546779     46.61034     1152 
     141            0    -28.06122   0.89114094    51.400919   -205.23711    69.652528   -115.23254   -3.1674383   -108.82307            0   -3789.9685   -3789.9685     41954.55    33.897587    26.546213    46.623804     1152 
     142            0    70.645763   0.89954996    84.786033    48.011729    79.139527   -67.853436   -1.5303076   -123.23605            0    -3789.971    -3789.971    41944.361    33.902542    26.530773    46.632791     1152 
     143            0   -1.2550642   0.90794396   -3.0381793  -0.47479651  -0.25221672   -59.237555   -1.2294377   -125.59786            0   -3789.9714   -3789.9714    41952.865    33.906345    26.530276    46.637888     1152 
     144            0    17.051833    0.9163599    60.553488    49.744744   -59.142732   -61.532909   -1.2791272   -130.45332            0   -3789.9717   -3789.9717    41951.884     33.90134    26.527272    46.648964     1152 
     145            0   -196.26625   0.92477202   -145.25671   -160.87583   -282.66619    -61.87687   -1.2525449   -132.85178            0   -3789.9734   -3789.9734    41977.255    33.906504    26.531518    46.662599     1152 
     146            0    -150.5557   0.92901111   -116.28166   -110.33496   -225.05046   -55.478897  -0.98318114   -145.03309            0   -3790.0085   -3790.0085    41975.419    33.906555    26.528964     46.66498     1152 
     147            0    14.854003    0.9374299    43.831922    49.297065   -48.566979   -56.006847   -1.0241974   -143.60918            0   -3790.0095   -3790.0095    41955.938    33.902444    26.525917    46.654337     1152 
     148            0  -0.53402269   0.94585109   -2.2915946  0.018749746   0.67077674   -57.121267   -1.0807807    -139.1596            0   -3790.0098   -3790.0098    41956.813    33.905843    26.529043    46.645136     1152 
     149            0  -0.53402269     1.104584   -2.2915946  0.018749746   0.67077674   -57.121267   -1.0807807    -139.1596            0   -3790.0098   -3790.0098    41956.813    33.905843    26.529043    46.645136     1152 
Loop time of 1.1046 on 1 procs for 149 steps with 1152 atoms

99.9% CPU use with 1 MPI tasks x no OpenMP threads

Minimization stats:
  Stopping criterion = linesearch alpha is zero
  Energy initial, next-to-last, final = 
        -3779.87514958     -3790.00975062     -3790.00975062
  Force two-norm initial, final = 526.662 0.283912
  Force max component initial, final = 323.08 0.0608242
  Final line search alpha, max atom move = 8.92045e-08 5.42579e-09
  Iterations, force evaluations = 149 261

MPI task timing breakdown:
Section |  min time  |  avg time  |  max time  |%varavg| %total
---------------------------------------------------------------
Pair    | 1.0593     | 1.0593     | 1.0593     |   0.0 | 95.90
Neigh   | 0.013017   | 0.013017   | 0.013017   |   0.0 |  1.18
Comm    | 0.0034292  | 0.0034292  | 0.0034292  |   0.0 |  0.31
Output  | 0.0049634  | 0.0049634  | 0.0049634  |   0.0 |  0.45
Modify  | 0          | 0          | 0          |   0.0 |  0.00
Other   |            | 0.02389    |            |       |  2.16

Nlocal:    1152 ave 1152 max 1152 min
Histogram: 1 0 0 0 0 0 0 0 0 0
Nghost:    1580 ave 1580 max 1580 min
Histogram: 1 0 0 0 0 0 0 0 0 0
Neighs:    65868 ave 65868 max 65868 min
Histogram: 1 0 0 0 0 0 0 0 0 0

Total # of neighbors = 65868
Ave neighs/atom = 57.1771
Neighbor list builds = 1
Dangerous builds = 0
Setting up cg style minimization ...
  Unit style: metal
Memory usage per processor = 3.40572 Mbytes
Step Temp Press CPU Pxx Pyy Pzz Pxy Pxz Pyz KinEng PotEng TotEng Volume Lx Ly Lz Atoms 
     149            0  -0.53402269            0   -2.2915946  0.018749746   0.67077674   -57.121267   -1.0807807    -139.1596            0   -3790.0098   -3790.0098    41956.813    33.905843    26.529043    46.645136     1152 
     150            0    4.0198607 0.0041868687   -3.2991454   -11.282073    26.640801   -57.105882   -1.0057461   -148.79444            0   -3790.0368   -3790.0368    41956.813    33.905843    26.529043    46.645136     1152 
     151            0   -3.0752592 0.0083780289   -10.373392   -35.805654    36.953269   -57.063817  -0.97047835   -151.46243            0   -3790.0536   -3790.0536    41956.813    33.905843    26.529043    46.645136     1152 
     152            0   -30.835501  0.016710043    -33.55409    -69.87885    10.926436   -57.020974  -0.82396705   -160.17062            0   -3790.0665   -3790.0665    41956.813    33.905843    26.529043    46.645136     1152 
     153            0   -37.201122  0.025042057   -40.539145   -90.282022    19.217802    -57.02466  -0.73708598   -157.45817            0   -3790.0696   -3790.0696    41956.813    33.905843    26.529043    46.645136     1152 
     154            0   -35.884262  0.033374071   -39.089196   -90.765969    22.202378   -57.025781  -0.75843345   -153.87086            0   -3790.0703   -3790.0703    41956.813    33.905843    26.529043    46.645136     1152 
     155            0   -50.016053  0.041702986   -46.245759   -105.68928    1.8868767   -57.029606  -0.73652049   -136.25475            0   -3790.0715   -3790.0715    41956.813    33.905843    26.529043    46.645136     1152 
     156            0   -49.563936    0.0500319   -46.263191   -108.55763    6.1290127   -57.052012  -0.69327204   -128.62181            0   -3790.0718   -3790.0718    41956.813    33.905843    26.529043    46.645136     1152 
     157            0   -45.472965     0.058357   -44.511782   -108.71673    16.809618   -57.067822   -0.6572597   -119.50976            0    -3790.072    -3790.072    41956.813    33.905843    26.529043    46.645136     1152 
     158            0    -52.88834  0.066684008   -48.000883   -120.52702    9.8628877   -57.058207  -0.59498458   -98.171545            0   -3790.0723   -3790.0723    41956.813    33.905843    26.529043    46.645136     1152 
     159            0   -60.673711  0.075012922   -52.529509    -129.4406 -0.051023634   -57.056048  -0.53463863   -86.481781            0   -3790.0725   -3790.0725    41956.813    33.905843    26.529043    46.645136     1152 
     160            0   -67.041823  0.083344936   -57.558544   -137.55203   -6.0149006   -57.064215  -0.41701375   -64.831431            0   -3790.0728   -3790.0728    41956.813    33.905843    26.529043    46.645136     1152 
     161            0   -69.378228   0.09168005   -58.948511   -144.04442   -5.1417565   -57.054067  -0.27237546   -31.328584            0   -3790.0733   -3790.0733    41956.813    33.905843    26.529043    46.645136     1152 
     162            0   -69.984381   0.10001493   -59.024411   -146.00999   -4.9187389   -57.042981  -0.21656218    -19.82049            0   -3790.0735   -3790.0735    41956.813    33.905843    26.529043    46.645136     1152 
     163            0   -72.978047   0.10834193   -60.355965    -148.8644   -9.7137797   -57.028422  -0.13945461   -7.8462364            0   -3790.0736   -3790.0736    41956.813    33.905843    26.529043    46.645136     1152 
     164            0   -72.415788   0.11667204   -59.736206   -147.41131   -10.099845   -57.020466  -0.10879133   -4.0586491            0   -3790.0737   -3790.0737    41956.813    33.905843    26.529043    46.645136     1152 
     165            0   -69.040528   0.12501097   -57.766518   -143.31461   -6.0404579   -57.018792 -0.093726055    -2.344249            0   -3790.0737   -3790.0737    41956.813    33.905843    26.529043    46.645136     1152 
     166            0   -67.450639   0.13333797   -56.765573   -141.50889   -4.0774496   -57.025336  -0.08714968   -1.4022095            0   -3790.0738   -3790.0738    41956.813    33.905843    26.529043    46.645136     1152 
     167            0   -67.062434   0.14167404   -56.667834   -140.69707   -3.8223982   -57.027785 -0.083438537   -1.1424155            0   -3790.0738   -3790.0738    41956.813    33.905843    26.529043    46.645136     1152 
     168            0   -66.748359   0.15000987   -56.619154   -140.10379   -3.5221285    -57.02423 -0.080168965   -1.0902701            0   -3790.0738   -3790.0738    41956.813    33.905843    26.529043    46.645136     1152 
     169            0   -66.615826   0.15834498   -56.452737   -139.88196   -3.5127841   -57.021085 -0.077977487  -0.93886689            0   -3790.0738   -3790.0738    41956.813    33.905843    26.529043    46.645136     1152 
     170            0    -66.36442    0.1666739   -56.223896   -139.65063   -3.2187321   -57.021518 -0.077235151   -0.8127523            0   -3790.0738   -3790.0738    41956.813    33.905843    26.529043    46.645136     1152 
     171            0   -65.885978   0.17500901   -55.857252   -139.28842   -2.5122645   -57.023414 -0.076118407  -0.66694786            0   -3790.0738   -3790.0738    41956.813    33.905843    26.529043    46.645136     1152 
     172            0   -65.629851   0.18334198   -55.620883    -139.1072    -2.161469    -57.02403 -0.074731449  -0.56540527            0   -3790.0738   -3790.0738    41956.813    33.905843    26.529043    46.645136     1152 
     173            0   -65.332289   0.19167089   -55.396323   -138.88104   -1.7195007   -57.023151 -0.072926282  -0.49283149            0   -3790.0738   -3790.0738    41956.813    33.905843    26.529043    46.645136     1152 
     174            0   -65.076672   0.20001507   -55.209377   -138.66268   -1.3579621   -57.022735 -0.070159909  -0.44177285            0   -3790.0738   -3790.0738    41956.813    33.905843    26.529043    46.645136     1152 
     175            0   -64.890605   0.20834899   -55.068527   -138.49141   -1.1118796    -57.02302 -0.067516568  -0.40265441            0   -3790.0738   -3790.0738    41956.813    33.905843    26.529043    46.645136     1152 
     176            0   -64.708208   0.21667504   -54.938763   -138.33917  -0.84669117   -57.023147 -0.064738979  -0.35756909            0   -3790.0738   -3790.0738    41956.813    33.905843    26.529043    46.645136     1152 
     177            0   -64.544004   0.22500801   -54.823013   -138.20911  -0.59989109   -57.022918 -0.060831725   -0.3210808            0   -3790.0738   -3790.0738    41956.813    33.905843    26.529043    46.645136     1152 
     178            0   -64.388729   0.23334193   -54.711209   -138.09754  -0.35743578   -57.022892 -0.056938231  -0.28940598            0   -3790.0738   -3790.0738    41956.813    33.905843    26.529043    46.645136     1152 
     179            0   -64.270987   0.24167705    -54.62192   -138.02117  -0.16987038   -57.022789 -0.053768887  -0.26467413            0   -3790.0738   -3790.0738    41956.813    33.905843    26.529043    46.645136     1152 
     180            0   -64.190821   0.25000691   -54.561782   -137.96977 -0.040911545   -57.022693 -0.050668765  -0.24960586            0   -3790.0738   -3790.0738    41956.813    33.905843    26.529043    46.645136     1152 
     181            0   -64.148661   0.25834298   -54.531501   -137.94719  0.032712575   -57.022665 -0.048188917  -0.23832073            0   -3790.0738   -3790.0738    41956.813    33.905843    26.529043    46.645136     1152 
     182            0   -64.132865    0.2666769   -54.519064   -137.94477  0.065237791   -57.022622 -0.045676843  -0.22732407            0   -3790.0738   -3790.0738    41956.813    33.905843    26.529043    46.645136     1152 
     183            0   -64.129132   0.27500486   -54.514734   -137.94774  0.075080505   -57.022534 -0.042717472  -0.21300695            0   -3790.0738   -3790.0738    41956.813    33.905843    26.529043    46.645136     1152 
     184            0   -64.123281   0.28333902   -54.510692   -137.94637  0.087221638   -57.022479 -0.039708719   -0.1960553            0   -3790.0738   -3790.0738    41956.813    33.905843    26.529043    46.645136     1152 
     185            0   -64.120999   0.29167104   -54.509481   -137.94615  0.092630662   -57.022355 -0.035551567  -0.17580358            0   -3790.0738   -3790.0738    41956.813    33.905843    26.529043    46.645136     1152 
     186            0    -64.12429     0.299999   -54.511256   -137.95301  0.091395827   -57.022193 -0.030164799  -0.14907449            0   -3790.0738   -3790.0738    41956.813    33.905843    26.529043    46.645136     1152 
     187            0   -64.136055   0.30833507   -54.518551    -137.9711  0.081483467   -57.021993 -0.021958464  -0.10610932            0   -3790.0738   -3790.0738    41956.813    33.905843    26.529043    46.645136     1152 
     188            0   -64.156226   0.31666493   -54.532922   -137.99257   0.05681287    -57.02188 -0.013424396 -0.063641573            0   -3790.0738   -3790.0738    41956.813    33.905843    26.529043    46.645136     1152 
     189            0   -64.173536   0.32499003   -54.545327   -138.00799  0.032711076   -57.021697 -0.007755431 -0.033647251            0   -3790.0738   -3790.0738    41956.813    33.905843    26.529043    46.645136     1152 
     190            0   -64.186187     0.333323   -54.553429   -138.01888  0.013750869   -57.021572 -0.0043185981 -0.012661652            0   -3790.0738   -3790.0738    41956.813    33.905843    26.529043    46.645136     1152 
     191            0   -64.191134   0.34165907   -54.556446    -138.0222 0.0052395472    -57.02154 -0.0027478006 -0.0040863013            0   -3790.0738   -3790.0738    41956.813    33.905843    26.529043    46.645136     1152 
     192            0   -64.191548   0.34999299   -54.557035   -138.02155  0.003941443   -57.021507 -0.001886934 0.0001368692            0   -3790.0738   -3790.0738    41956.813    33.905843    26.529043    46.645136     1152 
     193            0   -64.191109   0.35832286   -54.556795   -138.02051 0.0039759443   -57.021473 -0.0014834942 0.0014634296            0   -3790.0738   -3790.0738    41956.813    33.905843    26.529043    46.645136     1152 
     194            0   -64.191439   0.36665797   -54.557043   -138.01989 0.0026188664   -57.021466 -0.0012245357 0.0011428588            0   -3790.0738   -3790.0738    41956.813    33.905843    26.529043    46.645136     1152 
     195            0   -64.191648   0.37499404     -54.5573   -138.01938 0.0017354482   -57.021456 -0.0010648685 0.00054467516            0   -3790.0738   -3790.0738    41956.813    33.905843    26.529043    46.645136     1152 
     196            0   -64.191996   0.38332391   -54.557497   -138.01916 0.00066942581   -57.021444 -0.0009813538 1.7517687e-05            0   -3790.0738   -3790.0738    41956.813    33.905843    26.529043    46.645136     1152 
     197            0   -64.192182   0.39165998   -54.557644   -138.01899 8.9615651e-05   -57.021438 -0.00093619706 -0.00031602638            0   -3790.0738   -3790.0738    41956.813    33.905843    26.529043    46.645136     1152 
     198            0   -64.192155   0.39999294   -54.557679   -138.01877 -2.0251175e-05   -57.021437 -0.0009005456 -0.00047564114            0   -3790.0738   -3790.0738    41956.813    33.905843    26.529043    46.645136     1152 
     199            0   -64.192073   0.40832305   -54.557667   -138.01851 -3.7976776e-05   -57.021435 -0.00086716773 -0.00057330055            0   -3790.0738   -3790.0738    41956.813    33.905843    26.529043    46.645136     1152 
     200            0   -64.191986   0.41665387   -54.557626   -138.01838 5.0369403e-05   -57.021434 -0.00084471549 -0.00057540564            0   -3790.0738   -3790.0738    41956.813    33.905843    26.529043    46.645136     1152 
     201            0   -64.191941   0.42498589   -54.557599   -138.01833 0.00010921932   -57.021432 -0.00082360262 -0.00054590877            0   -3790.0738   -3790.0738    41956.813    33.905843    26.529043    46.645136     1152 
     202            0   -64.191951   0.43331599   -54.557609   -138.01833 8.5915094e-05   -57.021432 -0.00080345149 -0.0005363364            0   -3790.0738   -3790.0738    41956.813    33.905843    26.529043    46.645136     1152 
     203            0   -64.191959   0.44165206   -54.557614   -138.01834 7.8051778e-05   -57.021431 -0.00077775957 -0.00051513245            0   -3790.0738   -3790.0738    41956.813    33.905843    26.529043    46.645136     1152 
     204            0   -64.191986   0.44999003   -54.557627   -138.01836 3.3716285e-05    -57.02143 -0.0007432664 -0.00049062584            0   -3790.0738   -3790.0738    41956.813    33.905843    26.529043    46.645136     1152 
     205            0   -64.192009   0.45832396   -54.557641   -138.01838 -3.6736602e-06   -57.021428 -0.00069698844 -0.00045609607            0   -3790.0738   -3790.0738    41956.813    33.905843    26.529043    46.645136     1152 
     206            0   -64.192008   0.46665406   -54.557636   -138.01839 1.2698541e-06   -57.021426 -0.00063336973 -0.00039867479            0   -3790.0738   -3790.0738    41956.813    33.905843    26.529043    46.645136     1152 
     207            0    -64.19201   0.47498894   -54.557633   -138.01839 -2.6677635e-06   -57.021422 -0.000530428 -0.00031500473            0   -3790.0738   -3790.0738    41956.813    33.905843    26.529043    46.645136     1152 
     208            0   -64.192008   0.48332286   -54.557636   -138.01839 2.5142375e-06   -57.021418 -0.00040629512 -0.00022359447            0   -3790.0738   -3790.0738    41956.813    33.905843    26.529043    46.645136     1152 
     209            0   -64.192019   0.49165106   -54.557647    -138.0184 -1.3459738e-05   -57.021415 -0.00028048629 -0.00014244831            0   -3790.0738   -3790.0738    41956.813    33.905843    26.529043    46.645136     1152 
     210            0   -64.192039   0.49999595   -54.557657   -138.01842 -4.2781289e-05   -57.021412 -0.00017446859 -8.0404473e-05            0   -3790.0738   -3790.0738    41956.813    33.905843    26.529043    46.645136     1152 
     211            0   -64.192044   0.50832796   -54.557657   -138.01843 -4.5868459e-05    -57.02141 -0.00011531689 -4.959388e-05            0   -3790.0738   -3790.0738    41956.813    33.905843    26.529043    46.645136     1152 
     212            0   -64.192051   0.51665807   -54.557663   -138.01844 -4.9402279e-05    -57.02141 -7.3843851e-05 -3.2046202e-05            0   -3790.0738   -3790.0738    41956.813    33.905843    26.529043    46.645136     1152 
     213            0   -64.192053   0.52499199   -54.557665   -138.01845 -3.9901644e-05   -57.021409 -4.0759866e-05 -1.5713621e-05            0   -3790.0738   -3790.0738    41956.813    33.905843    26.529043    46.645136     1152 
     214            0   -64.192049   0.53332305   -54.557663   -138.01846 -2.7078887e-05   -57.021409 -2.3463451e-05 -9.2025541e-06            0   -3790.0738   -3790.0738    41956.813    33.905843    26.529043    46.645136     1152 
     215            0   -64.192047   0.54165888   -54.557662   -138.01846 -1.999075e-05   -57.021409 -1.5380719e-05 -6.0600239e-06            0   -3790.0738   -3790.0738    41956.813    33.905843    26.529043    46.645136     1152 
     216            0   -64.192047   0.54998803   -54.557662   -138.01846 -1.7512253e-05   -57.021409 -1.2357976e-05 -3.7160902e-06            0   -3790.0738   -3790.0738    41956.813    33.905843    26.529043    46.645136     1152 
     217            0   -64.192048   0.55832291   -54.557663   -138.01846 -1.754991e-05   -57.021409 -1.0588138e-05 -1.9456609e-06            0   -3790.0738   -3790.0738    41956.813    33.905843    26.529043    46.645136     1152 
     218            0   -64.192047   0.56665492   -54.557662   -138.01846 -1.6410915e-05   -57.021409 -9.1683385e-06 2.7065419e-07            0   -3790.0738   -3790.0738    41956.813    33.905843    26.529043    46.645136     1152 
     219            0   -64.192046   0.57498407   -54.557661   -138.01846 -1.4190724e-05   -57.021409 -8.0077607e-06 2.2351854e-06            0   -3790.0738   -3790.0738    41956.813    33.905843    26.529043    46.645136     1152 
     220            0   -64.192044   0.58332086   -54.557659   -138.01846 -1.0709217e-05   -57.021409 -7.0291122e-06 3.7070281e-06            0   -3790.0738   -3790.0738    41956.813    33.905843    26.529043    46.645136     1152 
     221            0   -64.192042   0.59165597   -54.557658   -138.01846 -8.3274956e-06   -57.021409 -6.4610509e-06 4.3950867e-06            0   -3790.0738   -3790.0738    41956.813    33.905843    26.529043    46.645136     1152 
     222            0   -64.192041   0.59998894   -54.557657   -138.01846 -6.5573787e-06   -57.021409 -5.9919141e-06 4.503367e-06            0   -3790.0738   -3790.0738    41956.813    33.905843    26.529043    46.645136     1152 
     223            0    -64.19204     0.608325   -54.557656   -138.01846 -5.4294517e-06   -57.021409 -5.6815417e-06 4.4676381e-06            0   -3790.0738   -3790.0738    41956.813    33.905843    26.529043    46.645136     1152 
     224            0    -64.19204   0.61666894   -54.557656   -138.01846 -4.4783057e-06   -57.021409 -5.3525377e-06 4.2835233e-06            0   -3790.0738   -3790.0738    41956.813    33.905843    26.529043    46.645136     1152 
     225            0   -64.192039   0.62499905   -54.557655   -138.01846 -3.3211898e-06   -57.021409 -4.9675322e-06 3.9361147e-06            0   -3790.0738   -3790.0738    41956.813    33.905843    26.529043    46.645136     1152 
     226            0   -64.192038   0.63333297   -54.557655   -138.01846 -1.9137536e-06   -57.021409 -4.5291876e-06 3.4932391e-06            0   -3790.0738   -3790.0738    41956.813    33.905843    26.529043    46.645136     1152 
     227            0   -64.192037   0.64166784   -54.557654   -138.01846 -3.7705775e-07   -57.021409 -4.0274326e-06 2.9489236e-06            0   -3790.0738   -3790.0738    41956.813    33.905843    26.529043    46.645136     1152 
     228            0   -64.192036   0.65000391   -54.557653   -138.01846 9.2789574e-07   -57.021409 -3.5855645e-06 2.5535686e-06            0   -3790.0738   -3790.0738    41956.813    33.905843    26.529043    46.645136     1152 
     229            0   -64.192035   0.65833592   -54.557653   -138.01846 1.7676212e-06   -57.021409 -3.1738682e-06 2.261688e-06            0   -3790.0738   -3790.0738    41956.813    33.905843    26.529043    46.645136     1152 
     230            0   -64.192035   0.66666985   -54.557652   -138.01845 2.3626965e-06   -57.021409 -2.6920437e-06 1.9160692e-06            0   -3790.0738   -3790.0738    41956.813    33.905843    26.529043    46.645136     1152 
     231            0   -64.192035   0.67500591   -54.557652   -138.01845 2.7493225e-06   -57.021409 -2.0049725e-06 1.4348366e-06            0   -3790.0738   -3790.0738    41956.813    33.905843    26.529043    46.645136     1152 
     232            0   -64.192035   0.68333387   -54.557652   -138.01845 2.8361498e-06   -57.021409 -1.4825882e-06 1.0842342e-06            0   -3790.0738   -3790.0738    41956.813    33.905843    26.529043    46.645136     1152 
     233            0   -64.192035   0.69166589   -54.557652   -138.01845 2.7906615e-06   -57.021409 -1.1161758e-06 8.6274237e-07            0   -3790.0738   -3790.0738    41956.813    33.905843    26.529043    46.645136     1152 
     234            0   -64.192035    0.6999979   -54.557652   -138.01845 2.5177819e-06   -57.021409 -8.3539659e-07 7.0174384e-07            0   -3790.0738   -3790.0738    41956.813    33.905843    26.529043    46.645136     1152 
     235            0   -64.192035   0.70832896   -54.557653   -138.01845 2.0934963e-06   -57.021409 -5.8031249e-07 5.3911881e-07            0   -3790.0738   -3790.0738    41956.813    33.905843    26.529043    46.645136     1152 
     236            0   -64.192035   0.71666193   -54.557653   -138.01845 1.6424283e-06   -57.021409 -3.9871414e-07 4.1272463e-07            0   -3790.0738   -3790.0738    41956.813    33.905843    26.529043    46.645136     1152 
     237            0   -64.192036     0.724998   -54.557653   -138.01846 1.1766525e-06   -57.021409 -2.6521866e-07 3.0347794e-07            0   -3790.0738   -3790.0738    41956.813    33.905843    26.529043    46.645136     1152 
     238            0   -64.192036   0.73332691   -54.557653   -138.01846 8.0518201e-07   -57.021409 -1.6701908e-07 2.1652377e-07            0   -3790.0738   -3790.0738    41956.813    33.905843    26.529043    46.645136     1152 
     239            0   -64.192036   0.74166393   -54.557653   -138.01846 5.3169251e-07   -57.021409 -1.0993185e-07 1.5245644e-07            0   -3790.0738   -3790.0738    41956.813    33.905843    26.529043    46.645136     1152 
     240            0   -64.192036   0.75000405   -54.557653   -138.01846 2.978959e-07   -57.021409 -6.2058858e-08 9.1518127e-08            0   -3790.0738   -3790.0738    41956.813    33.905843    26.529043    46.645136     1152 
     241            0   -64.192036   0.75834107   -54.557653   -138.01846 1.669229e-07   -57.021409 -3.3784162e-08 5.6906901e-08            0   -3790.0738   -3790.0738    41956.813    33.905843    26.529043    46.645136     1152 
     242            0   -64.192036    0.7666719   -54.557654   -138.01846 7.9544358e-08   -57.021409 -1.853053e-08 3.6009148e-08            0   -3790.0738   -3790.0738    41956.813    33.905843    26.529043    46.645136     1152 
     243            0   -64.192036   0.77909708   -54.557654   -138.01846 4.4426545e-08   -57.021409 -1.1365996e-08 2.8000635e-08            0   -3790.0738   -3790.0738    41956.813    33.905843    26.529043    46.645136     1152 
Loop time of 0.779114 on 1 procs for 94 steps with 1152 atoms

99.6% CPU use with 1 MPI tasks x no OpenMP threads

Minimization stats:
  Stopping criterion = force tolerance
  Energy initial, next-to-last, final = 
        -3790.00975062     -3790.07377825     -3790.07377825
  Force two-norm initial, final = 0.276763 8.85363e-11
  Force max component initial, final = 0.0239069 4.31983e-12
  Final line search alpha, max atom move = 1 4.31983e-12
  Iterations, force evaluations = 94 186

MPI task timing breakdown:
Section |  min time  |  avg time  |  max time  |%varavg| %total
---------------------------------------------------------------
Pair    | 0.76837    | 0.76837    | 0.76837    |   0.0 | 98.62
Neigh   | 0          | 0          | 0          |   0.0 |  0.00
Comm    | 0.0024023  | 0.0024023  | 0.0024023  |   0.0 |  0.31
Output  | 0.0030947  | 0.0030947  | 0.0030947  |   0.0 |  0.40
Modify  | 0          | 0          | 0          |   0.0 |  0.00
Other   |            | 0.005249   |            |       |  0.67

Nlocal:    1152 ave 1152 max 1152 min
Histogram: 1 0 0 0 0 0 0 0 0 0
Nghost:    1580 ave 1580 max 1580 min
Histogram: 1 0 0 0 0 0 0 0 0 0
Neighs:    65868 ave 65868 max 65868 min
Histogram: 1 0 0 0 0 0 0 0 0 0

Total # of neighbors = 65868
Ave neighs/atom = 57.1771
Neighbor list builds = 0
Dangerous builds = 0
System init for write_restart ...
System init for write_data ...
Reading restart file ...
  restart file = 13 Jan 2016, LAMMPS = 13 Jan 2016
  triclinic box = (0.229773 0.167809 -0.00906985) to (34.1356 26.6969 46.6361) with tilt (11.312 0 0)
  1 by 1 by 1 MPI processor grid
  1152 atoms
Changing box ...
  triclinic box = (0.229773 0.167809 -0.00906985) to (34.1356 26.6969 46.6361) with tilt (11.312 0 0)
Neighbor list info ...
  1 neighbor list requests
  update every 1 steps, delay 0 steps, check yes
  max neighbors/atom: 2000, page size: 100000
  master list distance cutoff = 7.72488
  ghost atom cutoff = 7.72488
Setting up cg style minimization ...
  Unit style: metal
Memory usage per processor = 3.39674 Mbytes
Step Temp Press CPU Pxx Pyy Pzz Pxy Pxz Pyz KinEng PotEng TotEng Volume Lx Ly Lz Atoms 
     243            0   -63.817218            0   -53.961704   -137.73112    0.2411725   -57.087114 -0.0022824181 0.0052504395            0   -3790.0738   -3790.0738    41956.771    33.905809    26.529043    46.645136     1152 
     244            0   -63.853947 0.0083320141   -53.991112   -137.75769   0.18695911   -57.086319 -0.0019110043  0.001581033            0   -3790.0738   -3790.0738    41956.771    33.905809    26.529043    46.645136     1152 
     245            0   -63.883502  0.016663074   -54.014789   -137.78134   0.14561979   -57.085751 -0.0013651167 0.00057106521            0   -3790.0738   -3790.0738    41956.771    33.905809    26.529043    46.645136     1152 
     246            0   -63.914282  0.024994135   -54.037022   -137.80546  0.099632978   -57.085355 -0.0008154331 -0.0018580867            0   -3790.0738   -3790.0738    41956.771    33.905809    26.529043    46.645136     1152 
     247            0   -63.956317  0.033324957    -54.06813   -137.83871  0.037891074   -57.084962 -0.00025133822 -0.0037573275            0   -3790.0738   -3790.0738    41956.771    33.905809    26.529043    46.645136     1152 
     248            0   -63.970965  0.041646957   -54.078821   -137.84976  0.015686134   -57.084951 -0.00014348725 -0.0040822729            0   -3790.0738   -3790.0738    41956.771    33.905809    26.529043    46.645136     1152 
     249            0   -63.975784  0.049975157   -54.081816   -137.85325 0.0077149119   -57.085029 -0.00023942847 -0.003918165            0   -3790.0738   -3790.0738    41956.771    33.905809    26.529043    46.645136     1152 
     250            0    -63.97739  0.058304071   -54.082982   -137.85436 0.0051717741    -57.08516 -0.00037667913 -0.0035057449            0   -3790.0738   -3790.0738    41956.771    33.905809    26.529043    46.645136     1152 
     251            0   -63.978589  0.066627979   -54.083509   -137.85494  0.002682861   -57.085337 -0.00049341302 -0.0032056984            0   -3790.0738   -3790.0738    41956.771    33.905809    26.529043    46.645136     1152 
     252            0   -63.979462  0.074958086   -54.083737   -137.85527 0.00062487309   -57.085469 -0.00057515539 -0.0030908836            0   -3790.0738   -3790.0738    41956.771    33.905809    26.529043    46.645136     1152 
     253            0   -63.979599  0.083289146   -54.083849    -137.8551 0.00015033302   -57.085553 -0.00063574742 -0.0030363558            0   -3790.0738   -3790.0738    41956.771    33.905809    26.529043    46.645136     1152 
     254            0   -63.979574  0.092113972   -54.083928   -137.85483 3.5684624e-05   -57.085621 -0.00067394824 -0.0029218153            0   -3790.0738   -3790.0738    41956.771    33.905809    26.529043    46.645136     1152 
     255            0   -63.979534   0.10045695   -54.083962   -137.85468 4.3752066e-05   -57.085651 -0.00067799431 -0.0028690023            0   -3790.0738   -3790.0738    41956.771    33.905809    26.529043    46.645136     1152 
     256            0   -63.979508   0.10879898    -54.08398   -137.85461 6.196708e-05   -57.085664 -0.00066617587  -0.00280504            0   -3790.0738   -3790.0738    41956.771    33.905809    26.529043    46.645136     1152 
     257            0    -63.97951   0.11714101   -54.083992   -137.85457 3.5610809e-05   -57.085664 -0.00063410943 -0.0026845957            0   -3790.0738   -3790.0738    41956.771    33.905809    26.529043    46.645136     1152 
     258            0   -63.979538   0.12547398   -54.084002   -137.85458 -2.9361326e-05    -57.08566 -0.00058345375 -0.002504952            0   -3790.0738   -3790.0738    41956.771    33.905809    26.529043    46.645136     1152 
     259            0   -63.979631   0.13381314   -54.084011    -137.8547 -0.00018483462   -57.085653 -0.00051503148 -0.0022232974            0   -3790.0738   -3790.0738    41956.771    33.905809    26.529043    46.645136     1152 
     260            0   -63.979675   0.14215016   -54.084016   -137.85476 -0.00024510805   -57.085642 -0.00044115651 -0.0019194944            0   -3790.0738   -3790.0738    41956.771    33.905809    26.529043    46.645136     1152 
     261            0   -63.979642   0.15048409    -54.08402   -137.85477 -0.00013958275   -57.085627 -0.0003417383 -0.0015228445            0   -3790.0738   -3790.0738    41956.771    33.905809    26.529043    46.645136     1152 
     262            0   -63.979635   0.15882301   -54.084025   -137.85481 -6.5766009e-05   -57.085612 -0.00022321775 -0.0010428568            0   -3790.0738   -3790.0738    41956.771    33.905809    26.529043    46.645136     1152 
     263            0   -63.979652   0.16716194   -54.084031   -137.85489 -3.5156508e-05   -57.085606 -0.00012927387 -0.00065340441            0   -3790.0738   -3790.0738    41956.771    33.905809    26.529043    46.645136     1152 
     264            0   -63.979672   0.17550015   -54.084038   -137.85497 -1.0640023e-05   -57.085606 -5.2364217e-05 -0.00032484245            0   -3790.0738   -3790.0738    41956.771    33.905809    26.529043    46.645136     1152 
     265            0   -63.979689   0.18383503   -54.084041   -137.85501 -1.6409595e-05   -57.085606 -1.649204e-05 -0.00016886487            0   -3790.0738   -3790.0738    41956.771    33.905809    26.529043    46.645136     1152 
     266            0   -63.979697   0.19217205   -54.084043   -137.85504 -8.7107447e-06   -57.085607 -1.3122701e-07 -9.4682223e-05            0   -3790.0738   -3790.0738    41956.771    33.905809    26.529043    46.645136     1152 
     267            0   -63.979708   0.20052099   -54.084045   -137.85507 -1.0509712e-05   -57.085609 5.5507344e-06 -5.3885418e-05            0   -3790.0738   -3790.0738    41956.771    33.905809    26.529043    46.645136     1152 
     268            0   -63.979713   0.20885611   -54.084046   -137.85509 -7.7945614e-06   -57.085611 4.4386453e-06 -3.2590213e-05            0   -3790.0738   -3790.0738    41956.771    33.905809    26.529043    46.645136     1152 
     269            0   -63.979713   0.21719909   -54.084047   -137.85509 3.0506487e-06   -57.085614 1.1909291e-06 -1.4152316e-05            0   -3790.0738   -3790.0738    41956.771    33.905809    26.529043    46.645136     1152 
     270            0   -63.979715   0.22553611   -54.084048    -137.8551 4.1870298e-06   -57.085616 -1.7547472e-06 -4.4870737e-06            0   -3790.0738   -3790.0738    41956.771    33.905809    26.529043    46.645136     1152 
     271            0   -63.979718   0.23387408   -54.084049    -137.8551 1.1787339e-06   -57.085618 -4.1132057e-06 -4.3304652e-08            0   -3790.0738   -3790.0738    41956.771    33.905809    26.529043    46.645136     1152 
     272            0   -63.979719   0.24221301   -54.084049   -137.85511 -4.7283345e-07   -57.085619 -5.7275859e-06 2.083921e-06            0   -3790.0738   -3790.0738    41956.771    33.905809    26.529043    46.645136     1152 
     273            0   -63.979719   0.25055194    -54.08405   -137.85511 -1.6426056e-07   -57.085619 -6.5309694e-06 2.5102759e-06            0   -3790.0738   -3790.0738    41956.771    33.905809    26.529043    46.645136     1152 
     274            0   -63.979719   0.25889206    -54.08405   -137.85511 -6.5948902e-08    -57.08562 -7.0345221e-06 2.4074541e-06            0   -3790.0738   -3790.0738    41956.771    33.905809    26.529043    46.645136     1152 
     275            0   -63.979719   0.26722503    -54.08405   -137.85511 -2.2605162e-07    -57.08562 -7.2521229e-06 2.1395421e-06            0   -3790.0738   -3790.0738    41956.771    33.905809    26.529043    46.645136     1152 
     276            0   -63.979719   0.27556396    -54.08405   -137.85511 -9.5635313e-08    -57.08562 -7.2511091e-06 1.8544236e-06            0   -3790.0738   -3790.0738    41956.771    33.905809    26.529043    46.645136     1152 
     277            0   -63.979719   0.28390312    -54.08405   -137.85511 5.0891038e-08    -57.08562 -7.1548726e-06 1.6490832e-06            0   -3790.0738   -3790.0738    41956.771    33.905809    26.529043    46.645136     1152 
     278            0   -63.979719   0.29223704    -54.08405   -137.85511 1.6706243e-08    -57.08562 -6.9540022e-06 1.5261244e-06            0   -3790.0738   -3790.0738    41956.771    33.905809    26.529043    46.645136     1152 
     279            0   -63.979719   0.30057716    -54.08405   -137.85511 -8.4709361e-08    -57.08562 -6.6610451e-06 1.4929093e-06            0   -3790.0738   -3790.0738    41956.771    33.905809    26.529043    46.645136     1152 
     280            0   -63.979719     0.308918    -54.08405   -137.85511 -1.2198131e-07    -57.08562 -6.190521e-06 1.4225039e-06            0   -3790.0738   -3790.0738    41956.771    33.905809    26.529043    46.645136     1152 
     281            0   -63.979719   0.31725097    -54.08405   -137.85511 -4.9417588e-08    -57.08562 -5.5261436e-06 1.2743257e-06            0   -3790.0738   -3790.0738    41956.771    33.905809    26.529043    46.645136     1152 
     282            0   -63.979719   0.32558703    -54.08405   -137.85511 -6.6345926e-08    -57.08562 -4.7609342e-06 1.0995763e-06            0   -3790.0738   -3790.0738    41956.771    33.905809    26.529043    46.645136     1152 
     283            0   -63.979719    0.3339231    -54.08405   -137.85511 -6.9101016e-08    -57.08562 -3.813993e-06 8.0820223e-07            0   -3790.0738   -3790.0738    41956.771    33.905809    26.529043    46.645136     1152 
     284            0   -63.979719   0.34225416    -54.08405   -137.85511 6.9888713e-09    -57.08562 -2.9352723e-06 5.1584585e-07            0   -3790.0738   -3790.0738    41956.771    33.905809    26.529043    46.645136     1152 
     285            0   -63.979719   0.35059404    -54.08405   -137.85511 1.1006029e-09    -57.08562 -1.8699179e-06 2.643974e-07            0   -3790.0738   -3790.0738    41956.771    33.905809    26.529043    46.645136     1152 
     286            0   -63.979719   0.35893703    -54.08405   -137.85511 -4.7507513e-08    -57.08562 -1.1600465e-06 1.3176875e-07            0   -3790.0738   -3790.0738    41956.771    33.905809    26.529043    46.645136     1152 
     287            0   -63.979719   0.36727715    -54.08405   -137.85511 1.2788915e-09    -57.08562 -6.6088517e-07 7.459386e-08            0   -3790.0738   -3790.0738    41956.771    33.905809    26.529043    46.645136     1152 
     288            0   -63.979719   0.37561011    -54.08405   -137.85511 2.2233314e-08    -57.08562 -3.5191558e-07 4.408877e-08            0   -3790.0738   -3790.0738    41956.771    33.905809    26.529043    46.645136     1152 
     289            0   -63.979719   0.38395095    -54.08405   -137.85511 1.5478992e-08    -57.08562 -1.6133497e-07 2.7293505e-08            0   -3790.0738   -3790.0738    41956.771    33.905809    26.529043    46.645136     1152 
     290            0   -63.979719   0.39228606    -54.08405   -137.85511 1.4175765e-08    -57.08562 -8.1046989e-08 2.3383699e-08            0   -3790.0738   -3790.0738    41956.771    33.905809    26.529043    46.645136     1152 
     291            0   -63.979719   0.40062499    -54.08405   -137.85511 8.3094974e-09    -57.08562 -4.8559512e-08 1.5989438e-08            0   -3790.0738   -3790.0738    41956.771    33.905809    26.529043    46.645136     1152 
     292            0   -63.979719   0.40896416    -54.08405   -137.85511 7.9200386e-09    -57.08562 -2.8756884e-08 1.0504717e-08            0   -3790.0738   -3790.0738    41956.771    33.905809    26.529043    46.645136     1152 
     293            0   -63.979719   0.41730094    -54.08405   -137.85511 7.5040997e-09    -57.08562 -1.7078324e-08 9.1099395e-09            0   -3790.0738   -3790.0738    41956.771    33.905809    26.529043    46.645136     1152 
     294            0   -63.979719   0.42563415    -54.08405   -137.85511 1.6154779e-09    -57.08562 -1.1351926e-08 6.6064799e-09            0   -3790.0738   -3790.0738    41956.771    33.905809    26.529043    46.645136     1152 
     295            0   -63.979719   0.43809009    -54.08405   -137.85511 -1.9861917e-10    -57.08562 -6.8179117e-09 4.1901551e-09            0   -3790.0738   -3790.0738    41956.771    33.905809    26.529043    46.645136     1152 
Loop time of 0.438108 on 1 procs for 52 steps with 1152 atoms

100.4% CPU use with 1 MPI tasks x no OpenMP threads

Minimization stats:
  Stopping criterion = force tolerance
  Energy initial, next-to-last, final = 
        -3790.07377904     -3790.07377904     -3790.07377904
  Force two-norm initial, final = 5.2107e-05 7.97966e-11
  Force max component initial, final = 4.95285e-06 4.16202e-12
  Final line search alpha, max atom move = 1 4.16202e-12
  Iterations, force evaluations = 52 104

MPI task timing breakdown:
Section |  min time  |  avg time  |  max time  |%varavg| %total
---------------------------------------------------------------
Pair    | 0.43202    | 0.43202    | 0.43202    |   0.0 | 98.61
Neigh   | 0          | 0          | 0          |   0.0 |  0.00
Comm    | 0.0013573  | 0.0013573  | 0.0013573  |   0.0 |  0.31
Output  | 0.0017319  | 0.0017319  | 0.0017319  |   0.0 |  0.40
Modify  | 0          | 0          | 0          |   0.0 |  0.00
Other   |            | 0.003      |            |       |  0.68

Nlocal:    1152 ave 1152 max 1152 min
Histogram: 1 0 0 0 0 0 0 0 0 0
Nghost:    1580 ave 1580 max 1580 min
Histogram: 1 0 0 0 0 0 0 0 0 0
Neighs:    65868 ave 65868 max 65868 min
Histogram: 1 0 0 0 0 0 0 0 0 0

Total # of neighbors = 65868
Ave neighs/atom = 57.1771
Neighbor list builds = 0
Dangerous builds = 0
Reading restart file ...
  restart file = 13 Jan 2016, LAMMPS = 13 Jan 2016
  triclinic box = (0.229773 0.167809 -0.00906985) to (34.1356 26.6969 46.6361) with tilt (11.312 0 0)
  1 by 1 by 1 MPI processor grid
  1152 atoms
Changing box ...
  triclinic box = (0.229773 0.167809 -0.00906985) to (34.1357 26.6969 46.6361) with tilt (11.312 0 0)
Neighbor list info ...
  1 neighbor list requests
  update every 1 steps, delay 0 steps, check yes
  max neighbors/atom: 2000, page size: 100000
  master list distance cutoff = 7.72488
  ghost atom cutoff = 7.72488
Setting up cg style minimization ...
  Unit style: metal
Memory usage per processor = 3.39674 Mbytes
Step Temp Press CPU Pxx Pyy Pzz Pxy Pxz Pyz KinEng PotEng TotEng Volume Lx Ly Lz Atoms 
     243            0   -64.566852            0   -55.153597   -138.30579  -0.24117122   -56.955705  0.002282338 -0.0052502759            0   -3790.0738   -3790.0738    41956.855    33.905877    26.529043    46.645136     1152 
     244            0   -64.530123 0.0082938671   -55.124189   -138.27922  -0.18695829     -56.9565 0.0019109587 -0.0015809748            0   -3790.0738   -3790.0738    41956.855    33.905877    26.529043    46.645136     1152 
     245            0   -64.500569  0.016584873   -55.100513   -138.25557  -0.14561963   -56.957068 0.0013650971 -0.00057109279            0   -3790.0738   -3790.0738    41956.855    33.905877    26.529043    46.645136     1152 
     246            0   -64.469789  0.024879932    -55.07828   -138.23145 -0.099632419   -56.957464 0.00081543092 0.0018580275            0   -3790.0738   -3790.0738    41956.855    33.905877    26.529043    46.645136     1152 
     247            0   -64.427753  0.033173084   -55.047172    -138.1982 -0.037890085   -56.957857 0.00025136529 0.0037572238            0   -3790.0738   -3790.0738    41956.855    33.905877    26.529043    46.645136     1152 
     248            0   -64.413106  0.041461945   -55.036481   -138.18715 -0.015685582   -56.957868 0.0001435255 0.0040821094            0   -3790.0738   -3790.0738    41956.855    33.905877    26.529043    46.645136     1152 
     249            0   -64.408287  0.049752951   -55.033486   -138.18366 -0.0077147118    -56.95779 0.00023947245  0.003917965            0   -3790.0738   -3790.0738    41956.855    33.905877    26.529043    46.645136     1152 
     250            0   -64.406681   0.05804801    -55.03232   -138.18255 -0.0051716601   -56.957659 0.0003767254  0.003505529            0   -3790.0738   -3790.0738    41956.855    33.905877    26.529043    46.645136     1152 
     251            0   -64.405482  0.066343069   -55.031793   -138.18197 -0.0026827504   -56.957483 0.00049345827 0.0032054852            0   -3790.0738   -3790.0738    41956.855    33.905877    26.529043    46.645136     1152 
     252            0   -64.404609  0.074630976   -55.031565   -138.18164 -0.00062482786   -56.957351 0.00057519894 0.0030906729            0   -3790.0738   -3790.0738    41956.855    33.905877    26.529043    46.645136     1152 
     253            0   -64.404471  0.082926035   -55.031454   -138.18181 -0.00015029929   -56.957267 0.00063579015 0.0030361462            0   -3790.0738   -3790.0738    41956.855    33.905877    26.529043    46.645136     1152 
     254            0   -64.404497  0.091221094   -55.031374   -138.18208 -3.5607669e-05   -56.957198 0.00067398976 0.0029216133            0   -3790.0738   -3790.0738    41956.855    33.905877    26.529043    46.645136     1152 
     255            0   -64.404537    0.0995121   -55.031341   -138.18223 -4.3676461e-05   -56.957168 0.00067803385 0.0028688075            0   -3790.0738   -3790.0738    41956.855    33.905877    26.529043    46.645136     1152 
     256            0   -64.404562   0.10780907   -55.031322    -138.1823 -6.1911887e-05   -56.957156 0.00066621321 0.0028048501            0   -3790.0738   -3790.0738    41956.855    33.905877    26.529043    46.645136     1152 
     257            0   -64.404561   0.11610293    -55.03131   -138.18234 -3.5599843e-05   -56.957155 0.00063414502 0.0026844171            0   -3790.0738   -3790.0738    41956.855    33.905877    26.529043    46.645136     1152 
     258            0   -64.404533   0.12439299     -55.0313   -138.18233 2.9346564e-05   -56.957159 0.00058348878 0.0025047975            0   -3790.0738   -3790.0738    41956.855    33.905877    26.529043    46.645136     1152 
     259            0   -64.404439     0.132689   -55.031291   -138.18221 0.00018481902   -56.957167 0.00051506562 0.0022231789            0   -3790.0738   -3790.0738    41956.855    33.905877    26.529043    46.645136     1152 
     260            0   -64.404396   0.14098692   -55.031286   -138.18215 0.00024507521   -56.957177 0.00044119032 0.0019194121            0   -3790.0738   -3790.0738    41956.855    33.905877    26.529043    46.645136     1152 
     261            0   -64.404429   0.14927888   -55.031282   -138.18214 0.00013955335   -56.957192 0.00034176917 0.0015227993            0   -3790.0738   -3790.0738    41956.855    33.905877    26.529043    46.645136     1152 
     262            0   -64.404436   0.15757203   -55.031277    -138.1821 6.5735941e-05   -56.957207 0.00022324375 0.0010428516            0   -3790.0738   -3790.0738    41956.855    33.905877    26.529043    46.645136     1152 
     263            0   -64.404419    0.1658659   -55.031271   -138.18202 3.5118294e-05   -56.957213 0.00012929305 0.00065341828            0   -3790.0738   -3790.0738    41956.855    33.905877    26.529043    46.645136     1152 
     264            0   -64.404399   0.17415404   -55.031264   -138.18194 1.0578806e-05   -56.957213 5.2374967e-05 0.00032485835            0   -3790.0738   -3790.0738    41956.855    33.905877    26.529043    46.645136     1152 
     265            0   -64.404382    0.1824491   -55.031261    -138.1819 1.6348648e-05   -56.957213 1.6496505e-05 0.00016887074            0   -3790.0738   -3790.0738    41956.855    33.905877    26.529043    46.645136     1152 
     266            0   -64.404374   0.19075799   -55.031259   -138.18187 8.6618816e-06   -56.957213 1.3282823e-07 9.4683783e-05            0   -3790.0738   -3790.0738    41956.855    33.905877    26.529043    46.645136     1152 
[...]
     275            0   -64.192177   0.26406097   -54.557721   -138.01881 2.8717833e-06   -56.871252 -1.2088252e-08 8.8564872e-07            0   -3790.0738   -3790.0738    41956.813    33.905843    26.529043    46.645136     1152 
     276            0   -64.192178   0.27231479   -54.557721   -138.01881 2.2494974e-06   -56.871252 -8.6948734e-08 8.2533895e-07            0   -3790.0738   -3790.0738    41956.813    33.905843    26.529043    46.645136     1152 
     277            0   -64.192178   0.28056502   -54.557721   -138.01881 1.7012049e-06   -56.871252 -1.0070559e-07 7.6907616e-07            0   -3790.0738   -3790.0738    41956.813    33.905843    26.529043    46.645136     1152 
     278            0   -64.192178   0.28881979   -54.557721   -138.01881 1.2071572e-06   -56.871252 -9.7569579e-08 7.1191896e-07            0   -3790.0738   -3790.0738    41956.813    33.905843    26.529043    46.645136     1152 
     279            0   -64.192179   0.29706979   -54.557722   -138.01881 8.3893823e-07   -56.871252 -9.7456658e-08 6.6451349e-07            0   -3790.0738   -3790.0738    41956.813    33.905843    26.529043    46.645136     1152 
     280            0   -64.192179   0.30531693   -54.557722   -138.01882 4.6354663e-07   -56.871252 -7.7706235e-08 6.0717038e-07            0   -3790.0738   -3790.0738    41956.813    33.905843    26.529043    46.645136     1152 
     281            0   -64.192179   0.31357098   -54.557722   -138.01882 1.8758427e-07   -56.871252 -4.86505e-08 5.5843374e-07            0   -3790.0738   -3790.0738    41956.813    33.905843    26.529043    46.645136     1152 
     282            0   -64.192179   0.32182193   -54.557722   -138.01882 -3.0018378e-08   -56.871252 -1.8503333e-08 5.1108108e-07            0   -3790.0738   -3790.0738    41956.813    33.905843    26.529043    46.645136     1152 
     283            0   -64.192179   0.33006883   -54.557722   -138.01882 -1.4455748e-07   -56.871252 -6.8023368e-10 4.7549828e-07            0   -3790.0738   -3790.0738    41956.813    33.905843    26.529043    46.645136     1152 
     284            0   -64.192179   0.33832383   -54.557722   -138.01882 -1.9067887e-07   -56.871252 6.200465e-09 4.5127349e-07            0   -3790.0738   -3790.0738    41956.813    33.905843    26.529043    46.645136     1152 
     285            0   -64.192179   0.34657884   -54.557722   -138.01882 -2.0686099e-07   -56.871252 9.5705594e-09 4.2736461e-07            0   -3790.0738   -3790.0738    41956.813    33.905843    26.529043    46.645136     1152 
     286            0   -64.192179   0.35483289   -54.557722   -138.01882 -2.0536235e-07   -56.871252 1.2836504e-08 3.8537494e-07            0   -3790.0738   -3790.0738    41956.813    33.905843    26.529043    46.645136     1152 
     287            0   -64.192179   0.36308289   -54.557722   -138.01882 -1.7824764e-07   -56.871252 1.1366477e-08 2.9960558e-07            0   -3790.0738   -3790.0738    41956.813    33.905843    26.529043    46.645136     1152 
     288            0   -64.192179   0.37133479   -54.557722   -138.01882 -1.3980862e-07   -56.871252 6.1754892e-09 2.1423944e-07            0   -3790.0738   -3790.0738    41956.813    33.905843    26.529043    46.645136     1152 
     289            0   -64.192179   0.37958694   -54.557722   -138.01882 -8.9134873e-08   -56.871252 2.9194721e-09 1.2476006e-07            0   -3790.0738   -3790.0738    41956.813    33.905843    26.529043    46.645136     1152 
     290            0   -64.192179   0.38783097   -54.557722   -138.01882 -4.7007926e-08   -56.871252 2.1791623e-09 5.9676712e-08            0   -3790.0738   -3790.0738    41956.813    33.905843    26.529043    46.645136     1152 
     291            0   -64.192179   0.40015888   -54.557722   -138.01882 -1.919606e-08   -56.871252 -4.3095875e-10 2.3425437e-08            0   -3790.0738   -3790.0738    41956.813    33.905843    26.529043    46.645136     1152 
Loop time of 0.400186 on 1 procs for 48 steps with 1152 atoms

99.0% CPU use with 1 MPI tasks x no OpenMP threads

Minimization stats:
  Stopping criterion = force tolerance
  Energy initial, next-to-last, final = 
        -3790.07377975     -3790.07377975     -3790.07377975
  Force two-norm initial, final = 1.29997e-05 8.35487e-11
  Force max component initial, final = 1.5847e-06 4.75298e-12
  Final line search alpha, max atom move = 1 4.75298e-12
  Iterations, force evaluations = 48 96

MPI task timing breakdown:
Section |  min time  |  avg time  |  max time  |%varavg| %total
---------------------------------------------------------------
Pair    | 0.3946     | 0.3946     | 0.3946     |   0.0 | 98.61
Neigh   | 0          | 0          | 0          |   0.0 |  0.00
Comm    | 0.0012431  | 0.0012431  | 0.0012431  |   0.0 |  0.31
Output  | 0.0015826  | 0.0015826  | 0.0015826  |   0.0 |  0.40
Modify  | 0          | 0          | 0          |   0.0 |  0.00
Other   |            | 0.002755   |            |       |  0.69

Nlocal:    1152 ave 1152 max 1152 min
Histogram: 1 0 0 0 0 0 0 0 0 0
Nghost:    1580 ave 1580 max 1580 min
Histogram: 1 0 0 0 0 0 0 0 0 0
Neighs:    65868 ave 65868 max 65868 min
Histogram: 1 0 0 0 0 0 0 0 0 0

Total # of neighbors = 65868
Ave neighs/atom = 57.1771
Neighbor list builds = 0
Dangerous builds = 0
Reading restart file ...
  restart file = 13 Jan 2016, LAMMPS = 13 Jan 2016
  triclinic box = (0.229773 0.167809 -0.00906985) to (34.1356 26.6969 46.6361) with tilt (11.312 0 0)
  1 by 1 by 1 MPI processor grid
  1152 atoms
Changing box ...
  triclinic box = (0.229773 0.167809 -0.00906985) to (34.1356 26.6969 46.6361) with tilt (11.312 0 0)
Neighbor list info ...
  1 neighbor list requests
  update every 1 steps, delay 0 steps, check yes
  max neighbors/atom: 2000, page size: 100000
  master list distance cutoff = 7.72488
  ghost atom cutoff = 7.72488
Setting up cg style minimization ...
  Unit style: metal
Memory usage per processor = 3.39674 Mbytes
Step Temp Press CPU Pxx Pyy Pzz Pxy Pxz Pyz KinEng PotEng TotEng Volume Lx Ly Lz Atoms 
     243            0    -64.19183            0    -54.55754   -138.01805 0.00010102087   -57.174968 -0.0053086839 -1.0270487e-05            0   -3790.0738   -3790.0738    41956.813    33.905843    26.529043    46.645136     1152 
     244            0   -64.191838 0.0082509518   -54.557546   -138.01806 8.8307667e-05   -57.173258 -0.0045304102 -1.1123162e-05            0   -3790.0738   -3790.0738    41956.813    33.905843    26.529043    46.645136     1152 
     245            0   -64.191845  0.016510963   -54.557551   -138.01806 7.6470005e-05   -57.172339 -0.0036022275 -1.1123311e-05            0   -3790.0738   -3790.0738    41956.813    33.905843    26.529043    46.645136     1152 
     246            0   -64.191852  0.024770021   -54.557555   -138.01807 6.5428642e-05   -57.171902 -0.0029636858 -1.0880094e-05            0   -3790.0738   -3790.0738    41956.813    33.905843    26.529043    46.645136     1152 
     247            0   -64.191856  0.033027172   -54.557558   -138.01807 5.813094e-05   -57.171731 -0.0026782137 -1.0419614e-05            0   -3790.0738   -3790.0738    41956.813    33.905843    26.529043    46.645136     1152 
     248            0    -64.19186  0.041279078   -54.557561   -138.01807 5.1536687e-05   -57.171665 -0.0025171955 -1.0298583e-05            0   -3790.0738   -3790.0738    41956.813    33.905843    26.529043    46.645136     1152 
     249            0   -64.191864   0.04953599   -54.557564   -138.01807 4.5981298e-05   -57.171638 -0.0024260133 -1.0008665e-05            0   -3790.0738   -3790.0738    41956.813    33.905843    26.529043    46.645136     1152 
     250            0   -64.191867   0.05779314   -54.557566   -138.01808 3.9631654e-05   -57.171625 -0.0023314492 -9.8599913e-06            0   -3790.0738   -3790.0738    41956.813    33.905843    26.529043    46.645136     1152 
     251            0   -64.191871  0.066046953   -54.557569   -138.01808 3.3226714e-05   -57.171617 -0.0022292832 -9.7547015e-06            0   -3790.0738   -3790.0738    41956.813    33.905843    26.529043    46.645136     1152 
     252            0   -64.191876   0.07430315   -54.557573   -138.01808 2.6188182e-05   -57.171612 -0.0021186992 -9.5266011e-06            0   -3790.0738   -3790.0738    41956.813    33.905843    26.529043    46.645136     1152 
     253            0   -64.191882  0.082559109   -54.557577   -138.01809 1.6695156e-05   -57.171607 -0.0019586176 -9.2805748e-06            0   -3790.0738   -3790.0738    41956.813    33.905843    26.529043    46.645136     1152 
     254            0    -64.19189  0.090811014   -54.557583   -138.01809  4.10294e-06   -57.171601 -0.0017080868 -8.7533129e-06            0   -3790.0738   -3790.0738    41956.813    33.905843    26.529043    46.645136     1152 
     255            0   -64.191901  0.099068165   -54.557591    -138.0181 -1.3085165e-05   -57.171593 -0.001344013 -7.9560059e-06            0   -3790.0738   -3790.0738    41956.813    33.905843    26.529043    46.645136     1152 
     256            0   -64.191914   0.10732508     -54.5576   -138.01811 -3.1890004e-05   -57.171584 -0.00089840331 -6.7728969e-06            0   -3790.0738   -3790.0738    41956.813    33.905843    26.529043    46.645136     1152 
     257            0    -64.19192   0.11557698   -54.557605   -138.01811 -4.1292975e-05   -57.171577 -0.00060096879 -5.7911134e-06            0   -3790.0738   -3790.0738    41956.813    33.905843    26.529043    46.645136     1152 
     258            0   -64.191922   0.12383318   -54.557606   -138.01811 -4.4496936e-05   -57.171574 -0.00042120005 -5.1803874e-06            0   -3790.0738   -3790.0738    41956.813    33.905843    26.529043    46.645136     1152 
     259            0   -64.191921   0.13209105   -54.557605   -138.01811 -4.2525453e-05   -57.171571 -0.00028085902 -4.2384194e-06            0   -3790.0738   -3790.0738    41956.813    33.905843    26.529043    46.645136     1152 
     260            0   -64.191918   0.14034104   -54.557603   -138.01811 -3.8118772e-05   -57.171569 -0.000183546 -3.7313141e-06            0   -3790.0738   -3790.0738    41956.813    33.905843    26.529043    46.645136     1152 
     261            0   -64.191914     0.148597     -54.5576   -138.01811 -3.2316865e-05   -57.171568 -0.00011351193 -3.1290337e-06            0   -3790.0738   -3790.0738    41956.813    33.905843    26.529043    46.645136     1152 
     262            0   -64.191911   0.15685701   -54.557598   -138.01811 -2.6987821e-05   -57.171568 -7.1878919e-05 -2.7406933e-06            0   -3790.0738   -3790.0738    41956.813    33.905843    26.529043    46.645136     1152 
     263            0   -64.191908   0.16511297   -54.557596   -138.01811 -2.2136009e-05   -57.171567 -4.5659748e-05 -2.3338884e-06            0   -3790.0738   -3790.0738    41956.813    33.905843    26.529043    46.645136     1152 
     264            0   -64.191905   0.17336607   -54.557594    -138.0181 -1.7720413e-05   -57.171567 -2.76571e-05 -2.0766496e-06            0   -3790.0738   -3790.0738    41956.813    33.905843    26.529043    46.645136     1152 
     265            0   -64.191903   0.18162608   -54.557592    -138.0181 -1.4051149e-05   -57.171567 -1.29755e-05 -1.7713241e-06            0   -3790.0738   -3790.0738    41956.813    33.905843    26.529043    46.645136     1152 
     266            0   -64.191901   0.18989205   -54.557591    -138.0181 -1.187105e-05   -57.171567 -6.4816426e-06 -1.605652e-06            0   -3790.0738   -3790.0738    41956.813    33.905843    26.529043    46.645136     1152 
     267            0     -64.1919   0.19814205    -54.55759    -138.0181 -1.0523307e-05   -57.171567 -3.9641681e-06 -1.5003734e-06            0   -3790.0738   -3790.0738    41956.813    33.905843    26.529043    46.645136     1152 
     268            0   -64.191899   0.20640111   -54.557589    -138.0181 -9.2716392e-06   -57.171567 -2.9926655e-06 -1.3932937e-06            0   -3790.0738   -3790.0738    41956.813    33.905843    26.529043    46.645136     1152 
     269            0   -64.191899   0.21465611   -54.557589    -138.0181 -8.1001074e-06   -57.171567 -1.8546803e-06 -1.3111444e-06            0   -3790.0738   -3790.0738    41956.813    33.905843    26.529043    46.645136     1152 
     270            0   -64.191898   0.22290802   -54.557588    -138.0181 -7.0523711e-06   -57.171567 -1.1708134e-06 -1.2221738e-06            0   -3790.0738   -3790.0738    41956.813    33.905843    26.529043    46.645136     1152 
     271            0   -64.191897   0.23116517   -54.557588    -138.0181 -6.1942482e-06   -57.171567 -8.6255843e-07 -1.1602783e-06            0   -3790.0738   -3790.0738    41956.813    33.905843    26.529043    46.645136     1152 
     272            0   -64.191897   0.23942304   -54.557588    -138.0181 -5.3840094e-06   -57.171567 -5.5240371e-07 -1.0985132e-06            0   -3790.0738   -3790.0738    41956.813    33.905843    26.529043    46.645136     1152 
     273            0   -64.191896   0.24767613   -54.557587    -138.0181 -4.5691013e-06   -57.171567 -3.1924349e-07 -1.0337007e-06            0   -3790.0738   -3790.0738    41956.813    33.905843    26.529043    46.645136     1152 
     274            0   -64.191896   0.25593209   -54.557587    -138.0181 -3.6878371e-06   -57.171567 -1.354908e-07 -9.6092575e-07            0   -3790.0738   -3790.0738    41956.813    33.905843    26.529043    46.645136     1152 
     275            0   -64.191895   0.26418614   -54.557586    -138.0181 -2.8757906e-06   -57.171567 1.3400247e-08 -8.9021529e-07            0   -3790.0738   -3790.0738    41956.813    33.905843    26.529043    46.645136     1152 
     276            0   -64.191895     0.272439   -54.557586    -138.0181 -2.2494596e-06   -57.171567 8.8001915e-08 -8.2939433e-07            0   -3790.0738   -3790.0738    41956.813    33.905843    26.529043    46.645136     1152 
     277            0   -64.191894   0.28069901   -54.557586    -138.0181 -1.6999819e-06   -57.171567 1.0125682e-07 -7.728855e-07            0   -3790.0738   -3790.0738    41956.813    33.905843    26.529043    46.645136     1152 
     278            0   -64.191894   0.28895307   -54.557586    -138.0181 -1.2057436e-06   -57.171567 9.8014453e-08 -7.1556123e-07            0   -3790.0738   -3790.0738    41956.813    33.905843    26.529043    46.645136     1152 
     279            0   -64.191894   0.29720902   -54.557585    -138.0181 -8.3733046e-07   -57.171567 9.7765948e-08 -6.68005e-07            0   -3790.0738   -3790.0738    41956.813    33.905843    26.529043    46.645136     1152 
     280            0   -64.191894   0.30546212   -54.557585    -138.0181 -4.6133888e-07   -57.171567 7.7837819e-08 -6.1036892e-07            0   -3790.0738   -3790.0738    41956.813    33.905843    26.529043    46.645136     1152 
     281            0   -64.191893   0.31372213   -54.557585    -138.0181 -1.8534026e-07   -57.171567 4.8641423e-08 -5.6144498e-07            0   -3790.0738   -3790.0738    41956.813    33.905843    26.529043    46.645136     1152 
     282            0   -64.191893   0.32197714   -54.557585   -138.01809 3.2086429e-08   -57.171567 1.8416644e-08 -5.1391187e-07            0   -3790.0738   -3790.0738    41956.813    33.905843    26.529043    46.645136     1152 
     283            0   -64.191893   0.33023214   -54.557585   -138.01809 1.4653254e-07   -57.171567 5.2657557e-10 -4.7813086e-07            0   -3790.0738   -3790.0738    41956.813    33.905843    26.529043    46.645136     1152 
     284            0   -64.191893   0.33848906   -54.557585   -138.01809 1.9251782e-07   -57.171567 -6.3663082e-09 -4.5373486e-07            0   -3790.0738   -3790.0738    41956.813    33.905843    26.529043    46.645136     1152 
     285            0   -64.191893   0.34674811   -54.557585   -138.01809 2.0859636e-07   -57.171567 -9.7647578e-09 -4.2958537e-07            0   -3790.0738   -3790.0738    41956.813    33.905843    26.529043    46.645136     1152 
     286            0   -64.191893   0.35500097   -54.557585   -138.01809 2.068346e-07   -57.171567 -1.3019125e-08 -3.8705404e-07            0   -3790.0738   -3790.0738    41956.813    33.905843    26.529043    46.645136     1152 
     287            0   -64.191893   0.36325502   -54.557585   -138.01809 1.7905628e-07   -57.171567 -1.1487652e-08 -3.002477e-07            0   -3790.0738   -3790.0738    41956.813    33.905843    26.529043    46.645136     1152 
     288            0   -64.191893   0.37151098   -54.557585   -138.01809 1.4013222e-07   -57.171567 -6.2516739e-09 -2.1423996e-07            0   -3790.0738   -3790.0738    41956.813    33.905843    26.529043    46.645136     1152 
     289            0   -64.191893   0.37976503   -54.557585   -138.01809 8.9079401e-08   -57.171567 -2.9463652e-09 -1.2448959e-07            0   -3790.0738   -3790.0738    41956.813    33.905843    26.529043    46.645136     1152 
     290            0   -64.191893   0.38801813   -54.557585    -138.0181 4.6903591e-08   -57.171567 -2.1904139e-09 -5.9412354e-08            0   -3790.0738   -3790.0738    41956.813    33.905843    26.529043    46.645136     1152 
     291            0   -64.191893   0.40035009   -54.557585    -138.0181 1.9099564e-08   -57.171567 4.1668149e-10 -2.329796e-08            0   -3790.0738   -3790.0738    41956.813    33.905843    26.529043    46.645136     1152 
Loop time of 0.400368 on 1 procs for 48 steps with 1152 atoms

99.9% CPU use with 1 MPI tasks x no OpenMP threads

Minimization stats:
  Stopping criterion = force tolerance
  Energy initial, next-to-last, final = 
        -3790.07377676     -3790.07377676     -3790.07377676
  Force two-norm initial, final = 1.29997e-05 8.36146e-11
  Force max component initial, final = 1.5847e-06 4.75568e-12
  Final line search alpha, max atom move = 1 4.75568e-12
  Iterations, force evaluations = 48 96

MPI task timing breakdown:
Section |  min time  |  avg time  |  max time  |%varavg| %total
---------------------------------------------------------------
Pair    | 0.39482    | 0.39482    | 0.39482    |   0.0 | 98.61
Neigh   | 0          | 0          | 0          |   0.0 |  0.00
Comm    | 0.0012414  | 0.0012414  | 0.0012414  |   0.0 |  0.31
Output  | 0.0015812  | 0.0015812  | 0.0015812  |   0.0 |  0.39
Modify  | 0          | 0          | 0          |   0.0 |  0.00
Other   |            | 0.002729   |            |       |  0.68

Nlocal:    1152 ave 1152 max 1152 min
Histogram: 1 0 0 0 0 0 0 0 0 0
Nghost:    1580 ave 1580 max 1580 min
Histogram: 1 0 0 0 0 0 0 0 0 0
Neighs:    65868 ave 65868 max 65868 min
Histogram: 1 0 0 0 0 0 0 0 0 0

Total # of neighbors = 65868
Ave neighs/atom = 57.1771
Neighbor list builds = 0
Dangerous builds = 0
Elastic Constant C11all = 47.3601451664099 GPa
Elastic Constant C22all = 43.9987266694498 GPa
Elastic Constant C33all = -1.87387954042606e-08 GPa
Elastic Constant C12all = 16.3312997420353 GPa
Elastic Constant C13all = -0.00272783686130396 GPa
Elastic Constant C23all = -0.00690095275345115 GPa
Elastic Constant C44all = -7.50333128962666e-10 GPa
Elastic Constant C55all = -2.38549802134003e-09 GPa
Elastic Constant C66all = 15.0157669441001 GPa
Elastic Constant C14all = -2.7954911274719e-08 GPa
Elastic Constant C15all = -7.43638082667531e-07 GPa
Elastic Constant C16all = -3.21392013388512 GPa
Elastic Constant C24all = -2.76949776889523e-07 GPa
Elastic Constant C25all = -2.4758018923876e-07 GPa
Elastic Constant C26all = -0.0360127928749816 GPa
Elastic Constant C34all = 5.26855465921015e-08 GPa
Elastic Constant C35all = -1.73440312423167e-06 GPa
Elastic Constant C36all = -0.00285204541067286 GPa
Elastic Constant C45all = -2.52943326728428e-07 GPa
Elastic Constant C46all = 1.18549497907239e-06 GPa
Elastic Constant C56all = -1.44871090235199e-07 GPa
Total wall time: 0:00:07
