   2   2   0   0
  0.2044415E+02  0.3866974E-09  0.3866975E-09  0.3866975E-09  0.5000000E-15
  1.000000000000000E-004
  CAR 
 unknown system                          
     17.84657017     -7.92599254  301      6.18778121      1.00000000
     -7.926  0.0000E+00  0.0000E+00
     -7.840  0.0000E+00  0.0000E+00
     -7.754  0.0000E+00  0.0000E+00
     -7.668  0.0000E+00  0.0000E+00
     -7.582  0.0000E+00  0.0000E+00
     -7.496  0.0000E+00  0.0000E+00
     -7.411  0.0000E+00  0.0000E+00
     -7.325  0.0000E+00  0.0000E+00
     -7.239  0.0000E+00  0.0000E+00
     -7.153  0.0000E+00  0.0000E+00
     -7.067  0.9692E-15  0.8327E-16
     -6.981  0.1249E-12  0.1081E-13
     -6.895  0.1043E-10  0.9068E-12
     -6.809  0.6057E-09  0.5294E-10
     -6.723  0.2447E-07  0.2155E-08
     -6.637  0.6880E-06  0.6126E-07
     -6.551  0.1347E-04  0.1218E-05
     -6.466  0.1838E-03  0.1701E-04
     -6.380  0.1748E-02  0.1672E-03
     -6.294  0.1161E-01  0.1164E-02
     -6.208  0.5379E-01  0.5785E-02
     -6.122  0.1741E+00  0.2074E-01
     -6.036  0.3939E+00  0.5458E-01
     -5.950  0.6228E+00  0.1081E+00
     -5.864  0.6886E+00  0.1672E+00
     -5.778  0.5323E+00  0.2130E+00
     -5.692  0.2877E+00  0.2377E+00
     -5.606  0.1087E+00  0.2470E+00
     -5.521  0.2868E-01  0.2495E+00
     -5.435  0.5286E-02  0.2499E+00
     -5.349  0.6801E-03  0.2500E+00
     -5.263  0.6103E-04  0.2500E+00
     -5.177  0.3818E-05  0.2500E+00
     -5.091  0.1664E-06  0.2500E+00
     -5.005  0.5048E-08  0.2500E+00
     -4.919  0.1066E-09  0.2500E+00
     -4.833  0.1564E-11  0.2500E+00
     -4.747  0.2649E-13  0.2500E+00
     -4.661  0.1175E-11  0.2500E+00
     -4.576  0.9171E-10  0.2500E+00
     -4.490  0.4976E-08  0.2500E+00
     -4.404  0.1878E-06  0.2500E+00
     -4.318  0.4935E-05  0.2500E+00
     -4.232  0.9031E-04  0.2500E+00
     -4.146  0.1152E-02  0.2501E+00
     -4.060  0.1024E-01  0.2510E+00
     -3.974  0.6357E-01  0.2564E+00
     -3.888  0.2754E+00  0.2801E+00
     -3.802  0.8338E+00  0.3517E+00
     -3.716  0.1764E+01  0.5033E+00
     -3.631  0.2609E+01  0.7274E+00
     -3.545  0.2697E+01  0.9591E+00
     -3.459  0.1950E+01  0.1127E+01
     -3.373  0.9856E+00  0.1211E+01
     -3.287  0.3482E+00  0.1241E+01
     -3.201  0.8592E-01  0.1249E+01
     -3.115  0.1481E-01  0.1250E+01
     -3.029  0.1781E-02  0.1250E+01
     -2.943  0.1494E-03  0.1250E+01
     -2.857  0.8733E-05  0.1250E+01
     -2.771  0.3560E-06  0.1250E+01
     -2.686  0.2679E-07  0.1250E+01
     -2.600  0.5838E-06  0.1250E+01
     -2.514  0.1419E-04  0.1250E+01
     -2.428  0.2404E-03  0.1250E+01
     -2.342  0.2839E-02  0.1250E+01
     -2.256  0.2338E-01  0.1252E+01
     -2.170  0.1344E+00  0.1264E+01
     -2.084  0.5394E+00  0.1310E+01
     -1.998  0.1512E+01  0.1440E+01
     -1.912  0.2964E+01  0.1695E+01
     -1.826  0.4061E+01  0.2044E+01
     -1.741  0.3890E+01  0.2378E+01
     -1.655  0.2606E+01  0.2602E+01
     -1.569  0.1221E+01  0.2707E+01
     -1.483  0.4038E+00  0.2741E+01
     -1.397  0.1241E+00  0.2752E+01
     -1.311  0.1779E+00  0.2767E+01
     -1.225  0.5693E+00  0.2816E+01
     -1.139  0.1379E+01  0.2934E+01
     -1.053  0.2341E+01  0.3136E+01
     -0.967  0.2778E+01  0.3374E+01
     -0.881  0.2305E+01  0.3572E+01
     -0.796  0.1338E+01  0.3687E+01
     -0.710  0.5425E+00  0.3734E+01
     -0.624  0.1537E+00  0.3747E+01
     -0.538  0.3043E-01  0.3750E+01
     -0.452  0.4204E-02  0.3750E+01
     -0.366  0.4052E-03  0.3750E+01
     -0.280  0.2723E-04  0.3750E+01
     -0.194  0.1275E-05  0.3750E+01
     -0.108  0.4156E-07  0.3750E+01
     -0.022  0.9427E-09  0.3750E+01
      0.064  0.1487E-10  0.3750E+01
      0.149  0.1628E-12  0.3750E+01
      0.235  0.1292E-14  0.3750E+01
      0.321  0.0000E+00  0.3750E+01
      0.407  0.0000E+00  0.3750E+01
      0.493  0.0000E+00  0.3750E+01
      0.579  0.0000E+00  0.3750E+01
      0.665  0.0000E+00  0.3750E+01
      0.751  0.0000E+00  0.3750E+01
      0.837  0.0000E+00  0.3750E+01
      0.923  0.0000E+00  0.3750E+01
      1.008  0.0000E+00  0.3750E+01
      1.094  0.0000E+00  0.3750E+01
      1.180  0.0000E+00  0.3750E+01
      1.266  0.0000E+00  0.3750E+01
      1.352  0.0000E+00  0.3750E+01
      1.438  0.0000E+00  0.3750E+01
      1.524  0.0000E+00  0.3750E+01
      1.610  0.0000E+00  0.3750E+01
      1.696  0.0000E+00  0.3750E+01
      1.782  0.0000E+00  0.3750E+01
      1.868  0.0000E+00  0.3750E+01
      1.953  0.6009E-13  0.3750E+01
      2.039  0.6027E-11  0.3750E+01
      2.125  0.4258E-09  0.3750E+01
      2.211  0.2092E-07  0.3750E+01
      2.297  0.7150E-06  0.3750E+01
      2.383  0.1701E-04  0.3750E+01
      2.469  0.2820E-03  0.3750E+01
      2.555  0.3258E-02  0.3750E+01
      2.641  0.2625E-01  0.3753E+01
      2.727  0.1477E+00  0.3765E+01
      2.813  0.5799E+00  0.3815E+01
      2.898  0.1591E+01  0.3952E+01
      2.984  0.3052E+01  0.4214E+01
      3.070  0.4092E+01  0.4565E+01
      3.156  0.3836E+01  0.4895E+01
      3.242  0.2514E+01  0.5111E+01
      3.328  0.1152E+01  0.5210E+01
      3.414  0.3689E+00  0.5242E+01
      3.500  0.8252E-01  0.5249E+01
      3.586  0.1289E-01  0.5250E+01
      3.672  0.1404E-02  0.5250E+01
      3.758  0.1067E-03  0.5250E+01
      3.843  0.5674E-05  0.5250E+01
      3.929  0.1012E-05  0.5250E+01
      4.015  0.1949E-04  0.5250E+01
      4.101  0.3289E-03  0.5250E+01
      4.187  0.3870E-02  0.5250E+01
      4.273  0.3176E-01  0.5253E+01
      4.359  0.1819E+00  0.5269E+01
      4.445  0.7276E+00  0.5331E+01
      4.531  0.2033E+01  0.5506E+01
      4.617  0.3971E+01  0.5847E+01
      4.703  0.5422E+01  0.6313E+01
      4.788  0.5176E+01  0.6757E+01
      4.874  0.3455E+01  0.7054E+01
      4.960  0.1612E+01  0.7193E+01
      5.046  0.5257E+00  0.7238E+01
      5.132  0.1197E+00  0.7248E+01
      5.218  0.1906E-01  0.7250E+01
      5.304  0.2350E-02  0.7250E+01
      5.390  0.2701E-02  0.7250E+01
      5.476  0.1904E-01  0.7252E+01
      5.562  0.9969E-01  0.7260E+01
      5.648  0.3646E+00  0.7292E+01
      5.733  0.9317E+00  0.7372E+01
      5.819  0.1664E+01  0.7515E+01
      5.905  0.2078E+01  0.7693E+01
      5.991  0.1815E+01  0.7849E+01
      6.077  0.1116E+01  0.7945E+01
      6.163  0.5314E+00  0.7991E+01
      6.249  0.4227E+00  0.8027E+01
      6.335  0.9743E+00  0.8111E+01
      6.421  0.2219E+01  0.8301E+01
      6.507  0.3629E+01  0.8613E+01
      6.593  0.4156E+01  0.8970E+01
      6.678  0.3329E+01  0.9256E+01
      6.764  0.1864E+01  0.9416E+01
      6.850  0.7313E+00  0.9479E+01
      6.936  0.2140E+00  0.9498E+01
      7.022  0.1226E+00  0.9508E+01
      7.108  0.3487E+00  0.9538E+01
      7.194  0.9769E+00  0.9622E+01
      7.280  0.1939E+01  0.9789E+01
      7.366  0.2693E+01  0.1002E+02
      7.452  0.2614E+01  0.1024E+02
      7.538  0.1775E+01  0.1040E+02
      7.623  0.8421E+00  0.1047E+02
      7.709  0.2793E+00  0.1049E+02
      7.795  0.6479E-01  0.1050E+02
      7.881  0.1154E-01  0.1050E+02
      7.967  0.1042E-01  0.1050E+02
      8.053  0.5556E-01  0.1051E+02
      8.139  0.2325E+00  0.1053E+02
      8.225  0.6806E+00  0.1058E+02
      8.311  0.1393E+01  0.1070E+02
      8.397  0.1992E+01  0.1087E+02
      8.483  0.1993E+01  0.1105E+02
      8.568  0.1394E+01  0.1117E+02
      8.654  0.6866E+00  0.1122E+02
      8.740  0.2752E+00  0.1125E+02
      8.826  0.2907E+00  0.1127E+02
      8.912  0.9198E+00  0.1135E+02
      8.998  0.2465E+01  0.1156E+02
      9.084  0.4660E+01  0.1196E+02
      9.170  0.6162E+01  0.1249E+02
      9.256  0.5698E+01  0.1298E+02
      9.342  0.3685E+01  0.1330E+02
      9.428  0.1666E+01  0.1344E+02
      9.513  0.5262E+00  0.1349E+02
      9.599  0.1161E+00  0.1350E+02
      9.685  0.1790E-01  0.1350E+02
      9.771  0.1925E-02  0.1350E+02
      9.857  0.1443E-03  0.1350E+02
      9.943  0.7543E-05  0.1350E+02
     10.029  0.2746E-06  0.1350E+02
     10.115  0.6956E-08  0.1350E+02
     10.201  0.1226E-09  0.1350E+02
     10.287  0.1503E-11  0.1350E+02
     10.373  0.1131E-13  0.1350E+02
     10.458  0.0000E+00  0.1350E+02
     10.544  0.0000E+00  0.1350E+02
     10.630  0.0000E+00  0.1350E+02
     10.716  0.0000E+00  0.1350E+02
     10.802  0.0000E+00  0.1350E+02
     10.888  0.0000E+00  0.1350E+02
     10.974  0.0000E+00  0.1350E+02
     11.060  0.0000E+00  0.1350E+02
     11.146  0.0000E+00  0.1350E+02
     11.232  0.0000E+00  0.1350E+02
     11.318  0.0000E+00  0.1350E+02
     11.403  0.0000E+00  0.1350E+02
     11.489  0.0000E+00  0.1350E+02
     11.575  0.0000E+00  0.1350E+02
     11.661  0.0000E+00  0.1350E+02
     11.747  0.0000E+00  0.1350E+02
     11.833  0.0000E+00  0.1350E+02
     11.919  0.0000E+00  0.1350E+02
     12.005  0.0000E+00  0.1350E+02
     12.091  0.0000E+00  0.1350E+02
     12.177  0.0000E+00  0.1350E+02
     12.263  0.6462E-15  0.1350E+02
     12.348  0.4652E-13  0.1350E+02
     12.434  0.4680E-11  0.1350E+02
     12.520  0.3265E-09  0.1350E+02
     12.606  0.1584E-07  0.1350E+02
     12.692  0.5347E-06  0.1350E+02
     12.778  0.1257E-04  0.1350E+02
     12.864  0.2057E-03  0.1350E+02
     12.950  0.2347E-02  0.1350E+02
     13.036  0.1868E-01  0.1350E+02
     13.122  0.1038E+00  0.1351E+02
     13.208  0.4026E+00  0.1355E+02
     13.293  0.1091E+01  0.1364E+02
     13.379  0.2067E+01  0.1382E+02
     13.465  0.2738E+01  0.1405E+02
     13.551  0.2535E+01  0.1427E+02
     13.637  0.1642E+01  0.1441E+02
     13.723  0.7430E+00  0.1447E+02
     13.809  0.2350E+00  0.1449E+02
     13.895  0.5192E-01  0.1450E+02
     13.981  0.8009E-02  0.1450E+02
     14.067  0.8620E-03  0.1450E+02
     14.153  0.6470E-04  0.1450E+02
     14.238  0.3384E-05  0.1450E+02
     14.324  0.1233E-06  0.1450E+02
     14.410  0.3125E-08  0.1450E+02
     14.496  0.5510E-10  0.1450E+02
     14.582  0.6759E-12  0.1450E+02
     14.668  0.6139E-14  0.1450E+02
     14.754  0.9499E-13  0.1450E+02
     14.840  0.9385E-11  0.1450E+02
     14.926  0.6393E-09  0.1450E+02
     15.012  0.3029E-07  0.1450E+02
     15.097  0.9982E-06  0.1450E+02
     15.183  0.2291E-04  0.1450E+02
     15.269  0.3662E-03  0.1450E+02
     15.355  0.4081E-02  0.1450E+02
     15.441  0.3172E-01  0.1450E+02
     15.527  0.1721E+00  0.1452E+02
     15.613  0.6520E+00  0.1457E+02
     15.699  0.1726E+01  0.1472E+02
     15.785  0.3194E+01  0.1500E+02
     15.871  0.4132E+01  0.1535E+02
     15.957  0.3737E+01  0.1567E+02
     16.042  0.2363E+01  0.1588E+02
     16.128  0.1045E+01  0.1597E+02
     16.214  0.3227E+00  0.1599E+02
     16.300  0.6964E-01  0.1600E+02
     16.386  0.1049E-01  0.1600E+02
     16.472  0.1103E-02  0.1600E+02
     16.558  0.8082E-04  0.1600E+02
     16.644  0.4128E-05  0.1600E+02
     16.730  0.1468E-06  0.1600E+02
     16.816  0.3634E-08  0.1600E+02
     16.902  0.6257E-10  0.1600E+02
     16.987  0.7502E-12  0.1600E+02
     17.073  0.5815E-14  0.1600E+02
     17.159  0.0000E+00  0.1600E+02
     17.245  0.0000E+00  0.1600E+02
     17.331  0.0000E+00  0.1600E+02
     17.417  0.0000E+00  0.1600E+02
     17.503  0.0000E+00  0.1600E+02
     17.589  0.0000E+00  0.1600E+02
     17.675  0.0000E+00  0.1600E+02
     17.761  0.0000E+00  0.1600E+02
     17.847  0.0000E+00  0.1600E+02
