       N       E                     dE             d eps       ncg     rms          rms(c)
DAV:   1     0.838192245576E+01    0.83819E+01   -0.36035E+03    48   0.890E+02
DAV:   2    -0.592526414212E+01   -0.14307E+02   -0.14284E+02    72   0.794E+01
DAV:   3    -0.611592967514E+01   -0.19067E+00   -0.19066E+00    80   0.105E+01
DAV:   4    -0.611686807782E+01   -0.93840E-03   -0.93840E-03    72   0.722E-01
DAV:   5    -0.611686931163E+01   -0.12338E-05   -0.12340E-05    64   0.258E-02    0.453E+00
DAV:   6    -0.595527276689E+01    0.16160E+00   -0.16592E-01    48   0.239E+00    0.282E+00
DAV:   7    -0.589393051624E+01    0.61342E-01   -0.41423E-01    48   0.375E+00    0.284E-01
DAV:   8    -0.587013478384E+01    0.23796E-01   -0.15915E-02    64   0.843E-01    0.183E-01
DAV:   9    -0.587382041955E+01   -0.36856E-02   -0.31457E-03    56   0.342E-01    0.108E-01
DAV:  10    -0.587237486259E+01    0.14456E-02   -0.11008E-04    64   0.877E-02    0.524E-02
DAV:  11    -0.587239132418E+01   -0.16462E-04   -0.37008E-06    64   0.157E-02    0.181E-03
DAV:  12    -0.587240970513E+01   -0.18381E-04   -0.11174E-07    64   0.302E-03    0.103E-03
DAV:  13    -0.587240299324E+01    0.67119E-05   -0.23035E-08    48   0.107E-03    0.129E-04
DAV:  14    -0.587240282436E+01    0.16888E-06   -0.31819E-10    48   0.146E-04    0.299E-05
DAV:  15    -0.587240240381E+01    0.42055E-06   -0.45118E-11    24   0.636E-05    0.335E-06
DAV:  16    -0.587240245416E+01   -0.50351E-07   -0.54550E-12    24   0.178E-05
   1 F= -.58724025E+01 E0= -.58687050E+01  d E =-.587240E+01
