<?xml version="1.0" encoding="ISO-8859-1"?>
<modeling>
 <generator>
  <i name="program" type="string">vasp </i>
  <i name="version" type="string">5.3.3  </i>
  <i name="subversion" type="string">18Dez12 (build Jan 30 2013 10:57:47) complex                          parallel </i>
  <i name="platform" type="string">LinuxIFC </i>
  <i name="date" type="string">2016 06 21 </i>
  <i name="time" type="string">11:47:37 </i>
 </generator>
 <incar>
  <i type="string" name="PREC">accurate</i>
  <i type="int" name="NELM">   400</i>
  <i type="int" name="IBRION">     2</i>
  <i name="EDIFF">      0.00000010</i>
  <i type="int" name="NSW">     1</i>
  <i name="ENCUT">    550.00000000</i>
  <i type="int" name="ISMEAR">     0</i>
  <i type="logical" name="LWAVE"> F  </i>
  <i type="logical" name="LCHARG"> F  </i>
  <i type="int" name="NELM">   400</i>
  <i type="string" name="GGA"> BO</i>
  <i name="PARAM1">      0.18333333</i>
  <i name="PARAM2">      0.22000000</i>
  <i type="logical" name="LUSE_VDW"> T  </i>
  <i name="AGGAC">      0.00000000</i>
 </incar>
 <kpoints>
  <generation param="Gamma">
   <v type="int" name="divisions">       2        2        2 </v>
   <v name="usershift">      0.00000000       0.00000000       0.00000000 </v>
   <v name="genvec1">      0.50000000       0.00000000       0.00000000 </v>
   <v name="genvec2">      0.00000000       0.50000000       0.00000000 </v>
   <v name="genvec3">      0.00000000       0.00000000       0.50000000 </v>
   <v name="shift">      0.00000000       0.00000000       0.00000000 </v>
  </generation>
  <varray name="kpointlist" >
   <v>       0.00000000       0.00000000       0.00000000 </v>
   <v>       0.50000000       0.00000000       0.00000000 </v>
   <v>       0.50000000       0.50000000       0.00000000 </v>
  </varray>
  <varray name="weights" >
   <v>       0.12500000 </v>
   <v>       0.50000000 </v>
   <v>       0.37500000 </v>
  </varray>
 </kpoints>
 <parameters>
  <separator name="general" >
   <i type="string" name="SYSTEM">unknown system</i>
   <i type="logical" name="LCOMPAT"> F  </i>
  </separator>
  <separator name="electronic" >
   <i type="string" name="PREC">accura</i>
   <i name="ENMAX">    550.00000000</i>
   <i name="ENAUG">    322.06900000</i>
   <i name="EDIFF">      0.00000010</i>
   <i type="int" name="IALGO">    38</i>
   <i type="int" name="IWAVPR">    11</i>
   <i type="int" name="NBANDS">     8</i>
   <i name="NELECT">      8.00000000</i>
   <i type="int" name="TURBO">     0</i>
   <i type="int" name="IRESTART">     0</i>
   <i type="int" name="NREBOOT">     0</i>
   <i type="int" name="NMIN">     0</i>
   <i name="EREF">      0.00000000</i>
   <separator name="electronic smearing" >
    <i type="int" name="ISMEAR">     0</i>
    <i name="SIGMA">      0.20000000</i>
    <i name="KSPACING">      0.50000000</i>
    <i type="logical" name="KGAMMA"> T  </i>
   </separator>
   <separator name="electronic projectors" >
    <i type="logical" name="LREAL"> F  </i>
    <v name="ROPT">      0.00000000</v>
    <i type="int" name="LMAXPAW">  -100</i>
    <i type="int" name="LMAXMIX">     2</i>
    <i type="logical" name="NLSPLINE"> F  </i>
   </separator>
   <separator name="electronic startup" >
    <i type="int" name="ISTART">     0</i>
    <i type="int" name="ICHARG">     2</i>
    <i type="int" name="INIWAV">     1</i>
   </separator>
   <separator name="electronic spin" >
    <i type="int" name="ISPIN">     1</i>
    <i type="logical" name="LNONCOLLINEAR"> F  </i>
    <v name="MAGMOM">      1.00000000      1.00000000</v>
    <i name="NUPDOWN">     -1.00000000</i>
    <i type="logical" name="LSORBIT"> F  </i>
    <v name="SAXIS">      0.00000000      0.00000000      1.00000000</v>
    <i type="logical" name="LSPIRAL"> F  </i>
    <v name="QSPIRAL">      0.00000000      0.00000000      0.00000000</v>
    <i type="logical" name="LZEROZ"> F  </i>
   </separator>
   <separator name="electronic exchange-correlation" >
    <i type="logical" name="LASPH"> F  </i>
    <i type="logical" name="LMETAGGA"> F  </i>
   </separator>
   <separator name="electronic convergence" >
    <i type="int" name="NELM">   400</i>
    <i type="int" name="NELMDL">    -5</i>
    <i type="int" name="NELMIN">     2</i>
    <i name="ENINI">    550.00000000</i>
    <separator name="electronic convergence detail" >
     <i type="logical" name="LDIAG"> T  </i>
     <i type="logical" name="LSUBROT"> T  </i>
     <i name="WEIMIN">      0.00100000</i>
     <i name="EBREAK">      0.00000000</i>
     <i name="DEPER">      0.30000000</i>
     <i type="int" name="NRMM">     4</i>
     <i name="TIME">      0.40000000</i>
    </separator>
   </separator>
   <separator name="electronic mixer" >
    <i name="AMIX">      0.40000000</i>
    <i name="BMIX">      1.00000000</i>
    <i name="AMIN">      0.10000000</i>
    <i name="AMIX_MAG">      1.60000000</i>
    <i name="BMIX_MAG">      1.00000000</i>
    <separator name="electronic mixer details" >
     <i type="int" name="IMIX">     4</i>
     <i type="int" name="MAXMIX">   -45</i>
     <i name="WC">    100.00000000</i>
     <i type="int" name="INIMIX">     1</i>
     <i type="int" name="MIXPRE">     1</i>
     <i type="int" name="MREMOVE">     5</i>
    </separator>
   </separator>
   <separator name="electronic dipolcorrection" >
    <i type="logical" name="LDIPOL"> F  </i>
    <i type="logical" name="LMONO"> F  </i>
    <i type="int" name="IDIPOL">     0</i>
    <i name="EPSILON">      1.00000000</i>
    <v name="DIPOL">   -100.00000000   -100.00000000   -100.00000000</v>
    <i name="EFIELD">      0.00000000</i>
   </separator>
  </separator>
  <separator name="grids" >
   <i type="int" name="NGX">    30</i>
   <i type="int" name="NGY">    30</i>
   <i type="int" name="NGZ">    30</i>
   <i type="int" name="NGXF">    60</i>
   <i type="int" name="NGYF">    60</i>
   <i type="int" name="NGZF">    60</i>
   <i type="logical" name="ADDGRID"> F  </i>
  </separator>
  <separator name="ionic" >
   <i type="int" name="NSW">     1</i>
   <i type="int" name="IBRION">     2</i>
   <i type="int" name="ISIF">     2</i>
   <i name="PSTRESS">      0.00000000</i>
   <i name="EDIFFG">      0.00000100</i>
   <i type="int" name="NFREE">     1</i>
   <i name="POTIM">      0.50000000</i>
   <i name="SMASS">     -3.00000000</i>
   <i name="SCALEE">      1.00000000</i>
  </separator>
  <separator name="ionic md" >
   <i name="TEBEG">      0.00010000</i>
   <i name="TEEND">      0.00010000</i>
   <i type="int" name="NBLOCK">     1</i>
   <i type="int" name="KBLOCK">     1</i>
   <i type="int" name="NPACO">   256</i>
   <i name="APACO">     16.00000000</i>
  </separator>
  <separator name="symmetry" >
   <i type="int" name="ISYM">     2</i>
   <i name="SYMPREC">      0.00001000</i>
  </separator>
  <separator name="dos" >
   <i type="logical" name="LORBIT"> F  </i>
   <v name="RWIGS">     -1.00000000</v>
   <i type="int" name="NEDOS">   301</i>
   <i name="EMIN">     10.00000000</i>
   <i name="EMAX">    -10.00000000</i>
   <i name="EFERMI">      0.00000000</i>
  </separator>
  <separator name="writing" >
   <i type="int" name="NWRITE">     2</i>
   <i type="logical" name="LWAVE"> F  </i>
   <i type="logical" name="LCHARG"> F  </i>
   <i type="logical" name="LPARD"> F  </i>
   <i type="logical" name="LVTOT"> F  </i>
   <i type="logical" name="LVHAR"> F  </i>
   <i type="logical" name="LELF"> F  </i>
   <i type="logical" name="LOPTICS"> F  </i>
   <v name="STM">      0.00000000      0.00000000      0.00000000      0.00000000      0.00000000      0.00000000      0.00000000</v>
  </separator>
  <separator name="performance" >
   <i type="int" name="NPAR">     4</i>
   <i type="int" name="NSIM">     4</i>
   <i type="int" name="NBLK">    -1</i>
   <i type="logical" name="LPLANE"> T  </i>
   <i type="logical" name="LSCALAPACK"> F  </i>
   <i type="logical" name="LSCAAWARE"> F  </i>
   <i type="logical" name="LSCALU"> F  </i>
   <i type="logical" name="LASYNC"> F  </i>
   <i type="logical" name="LORBITALREAL"> F  </i>
  </separator>
  <separator name="miscellaneous" >
   <i type="int" name="IDIOT">     3</i>
   <i type="logical" name="LMUSIC"> F  </i>
   <v name="POMASS">     28.08500000</v>
   <v name="DARWINR">      0.00000000</v>
   <v name="DARWINV">      1.00000000</v>
   <i type="logical" name="LCORR"> T  </i>
  </separator>
  <i type="logical" name="GGA_COMPAT"> T  </i>
  <i type="logical" name="LBERRY"> F  </i>
  <i type="int" name="ICORELEVEL">     0</i>
  <i type="logical" name="LDAU"> F  </i>
  <i type="int" name="I_CONSTRAINED_M">     0</i>
  <separator name="electronic exchange-correlation" >
   <i type="string" name="GGA">BO</i>
   <i type="int" name="VOSKOWN">     0</i>
   <i type="logical" name="LHFCALC"> F  </i>
   <i type="string" name="PRECFOCK"></i>
   <i type="logical" name="LSYMGRAD"> F  </i>
   <i type="logical" name="LHFONE"> F  </i>
   <i type="logical" name="LRHFCALC"> F  </i>
   <i type="logical" name="LTHOMAS"> F  </i>
   <i type="logical" name="LMODELHF"> F  </i>
   <i name="ENCUT4O">     -1.00000000</i>
   <i type="int" name="EXXOEP">     0</i>
   <i type="int" name="FOURORBIT">     0</i>
   <i name="AEXX">      0.00000000</i>
   <i name="HFALPHA">      0.00000000</i>
   <i name="MCALPHA">      0.00000000</i>
   <i name="ALDAX">      1.00000000</i>
   <i name="AGGAX">      1.00000000</i>
   <i name="ALDAC">      1.00000000</i>
   <i name="AGGAC">      0.00000000</i>
   <i type="int" name="NKREDX">     1</i>
   <i type="int" name="NKREDY">     1</i>
   <i type="int" name="NKREDZ">     1</i>
   <i type="logical" name="SHIFTRED"> F  </i>
   <i type="logical" name="ODDONLY"> F  </i>
   <i type="logical" name="EVENONLY"> F  </i>
   <i type="int" name="LMAXFOCK">     0</i>
   <i type="int" name="NMAXFOCKAE">     0</i>
   <i type="logical" name="LFOCKAEDFT"> F  </i>
   <i name="HFSCREEN">      0.00000000</i>
   <i name="HFSCREENC">      0.00000000</i>
   <i type="int" name="NBANDSGWLOW">     0</i>
  </separator>
  <separator name="vdW DFT" >
   <i type="logical" name="LUSE_VDW"> T  </i>
   <i name="Zab_VDW">     -0.84910000</i>
   <i name="PARAM1">      0.18333333</i>
   <i name="PARAM2">      0.22000000</i>
   <i name="PARAM3">      0.00000000</i>
  </separator>
  <separator name="model GW" >
   <i type="int" name="MODEL_GW">     0</i>
   <i name="MODEL_EPS0">     12.26648953</i>
   <i name="MODEL_ALPHA">      1.00000000</i>
  </separator>
  <separator name="linear response parameters" >
   <i type="logical" name="LEPSILON"> F  </i>
   <i type="logical" name="LRPA"> F  </i>
   <i type="logical" name="LNABLA"> F  </i>
   <i type="logical" name="LVEL"> F  </i>
   <i type="int" name="KINTER">     0</i>
   <i name="CSHIFT">      0.10000000</i>
   <i name="OMEGAMAX">     -1.00000000</i>
   <i name="DEG_THRESHOLD">      0.00200000</i>
  </separator>
  <separator name="orbital magnetization" >
   <i type="logical" name="NUCIND"> F  </i>
   <v name="MAGPOS">      0.00000000      0.00000000      0.00000000</v>
   <i type="logical" name="LNICSALL"> T  </i>
   <i type="logical" name="ORBITALMAG"> F  </i>
   <i type="logical" name="LMAGBLOCH"> F  </i>
   <i type="logical" name="LCHIMAG"> F  </i>
   <i type="logical" name="LGAUGE"> T  </i>
   <i type="int" name="MAGATOM">     0</i>
   <v name="MAGDIPOL">      0.00000000      0.00000000      0.00000000</v>
   <v name="AVECCONST">      0.00000000      0.00000000      0.00000000</v>
  </separator>
  <separator name="response functions" >
   <i type="logical" name="LADDER"> F  </i>
   <i type="logical" name="LFXC"> F  </i>
   <i type="logical" name="LHARTREE"> T  </i>
   <i type="int" name="IBSE">     0</i>
   <i type="logical" name="LTCTE"> F  </i>
   <i type="logical" name="LTETE"> F  </i>
   <i type="logical" name="LTRIPLET"> F  </i>
   <i type="logical" name="LFXCEPS"> F  </i>
   <i type="logical" name="L2ORDER"> F  </i>
   <i type="logical" name="LUSEW"> F  </i>
   <i name="ENCUTGW">     -2.00000000</i>
   <i name="ENCUTGWSOFT">     -2.00000000</i>
   <i name="ENCUTLF">     -1.00000000</i>
   <i type="int" name="LMAXMP2">    -1</i>
   <i name="SCISSOR">      0.00000000</i>
   <i type="int" name="NOMEGA">     0</i>
   <i type="int" name="NOMEGAR">     0</i>
   <i type="int" name="NBANDSGW">    -1</i>
   <i type="int" name="NBANDSO">    -1</i>
   <i type="int" name="NBANDSV">    -1</i>
   <i type="int" name="NELM">   400</i>
   <i type="int" name="DIM">     3</i>
   <i type="int" name="ANTIRES">     0</i>
   <i name="OMEGAMAX">    -30.00000000</i>
   <i name="OMEGATL">   -200.00000000</i>
   <i type="int" name="OMEGAGRID">     0</i>
   <i name="CSHIFT">     -0.10000000</i>
   <i type="logical" name="SELFENERGY"> F  </i>
   <i type="logical" name="LSPECTRAL"> F  </i>
   <i type="logical" name="ODDONLYGW"> F  </i>
   <i type="logical" name="EVENONLYGW"> F  </i>
   <i type="int" name="NKREDLFX">     1</i>
   <i type="int" name="NKREDLFY">     1</i>
   <i type="int" name="NKREDLFZ">     1</i>
   <i type="int" name="MAXMEM">  1800</i>
   <i type="int" name="TELESCOPE">     0</i>
  </separator>
 </parameters>
 <atominfo>
  <atoms>       2 </atoms>
  <types>       1 </types>
  <array name="atoms" >
   <dimension dim="1">ion</dimension>
   <field type="string">element</field>
   <field type="int">atomtype</field>
   <set>
    <rc><c>Si</c><c>   1</c></rc>
    <rc><c>Si</c><c>   1</c></rc>
   </set>
  </array>
  <array name="atomtypes" >
   <dimension dim="1">type</dimension>
   <field type="int">atomspertype</field>
   <field type="string">element</field>
   <field>mass</field>
   <field>valence</field>
   <field type="string">pseudopotential</field>
   <set>
    <rc><c>   2</c><c>Si</c><c>     28.08500000</c><c>      4.00000000</c><c>  PAW_PBE Si 05Jan2001                  </c></rc>
   </set>
  </array>
 </atominfo>
 <structure name="initialpos" >
  <crystal>
   <varray name="basis" >
    <v>       3.34889800       0.00000000       1.93348700 </v>
    <v>       1.11629900       3.15737200       1.93348700 </v>
    <v>       0.00000000       0.00000000       3.86697500 </v>
   </varray>
   <i name="volume">     40.88829843 </i>
   <varray name="rec_basis" >
    <v>       0.29860569      -0.10557300       0.00000000 </v>
    <v>       0.00000000       0.31671909       0.00000000 </v>
    <v>      -0.14930281      -0.10557302       0.25860007 </v>
   </varray>
  </crystal>
  <varray name="positions" >
   <v>       0.87500000       0.87500000       0.87500000 </v>
   <v>       0.12500000       0.12500000       0.12500000 </v>
  </varray>
 </structure>
 <calculation>
  <scstep>
   <time name="dav">    0.03    0.03</time>
   <time name="total">    3.21    4.14</time>
   <energy>
    <i name="alphaZ">      3.29317992 </i>
    <i name="ewald">   -226.94489173 </i>
    <i name="hartreedc">    -11.32339116 </i>
    <i name="XCdc">    -20.24410379 </i>
    <i name="pawpsdc">    189.40224250 </i>
    <i name="pawaedc">   -152.61488262 </i>
    <i name="eentropy">     -0.02035985 </i>
    <i name="bandstr">     18.23996604 </i>
    <i name="atom">    208.59416316 </i>
    <i name="e_fr_energy">      8.38192246 </i>
    <i name="e_wo_entrp">      8.40228231 </i>
    <i name="e_0_energy">      8.39210238 </i>
   </energy>
  </scstep>
  <scstep>
   <time name="dav">    0.05    0.05</time>
   <time name="total">    0.05    1.66</time>
   <energy>
    <i name="e_fr_energy">     -5.92526414 </i>
    <i name="e_wo_entrp">     -5.92521303 </i>
    <i name="e_0_energy">     -5.92523858 </i>
   </energy>
  </scstep>
  <scstep>
   <time name="dav">    0.05    0.05</time>
   <time name="total">    0.05    0.44</time>
   <energy>
    <i name="e_fr_energy">     -6.11592968 </i>
    <i name="e_wo_entrp">     -6.11588526 </i>
    <i name="e_0_energy">     -6.11590747 </i>
   </energy>
  </scstep>
  <scstep>
   <time name="dav">    0.04    0.04</time>
   <time name="total">    0.04    0.48</time>
   <energy>
    <i name="e_fr_energy">     -6.11686808 </i>
    <i name="e_wo_entrp">     -6.11682373 </i>
    <i name="e_0_energy">     -6.11684590 </i>
   </energy>
  </scstep>
  <scstep>
   <time name="dav">    0.04    0.04</time>
   <time name="total">    0.08    1.09</time>
   <energy>
    <i name="e_fr_energy">     -6.11686931 </i>
    <i name="e_wo_entrp">     -6.11682496 </i>
    <i name="e_0_energy">     -6.11684714 </i>
   </energy>
  </scstep>
  <scstep>
   <time name="dav">    0.03    0.03</time>
   <time name="total">    1.59    1.95</time>
   <energy>
    <i name="e_fr_energy">     -5.95527277 </i>
    <i name="e_wo_entrp">     -5.95472339 </i>
    <i name="e_0_energy">     -5.95499808 </i>
   </energy>
  </scstep>
  <scstep>
   <time name="dav">    0.04    0.04</time>
   <time name="total">    1.76    2.46</time>
   <energy>
    <i name="e_fr_energy">     -5.89393052 </i>
    <i name="e_wo_entrp">     -5.88283301 </i>
    <i name="e_0_energy">     -5.88838176 </i>
   </energy>
  </scstep>
  <scstep>
   <time name="dav">    0.05    0.05</time>
   <time name="total">    1.77    2.63</time>
   <energy>
    <i name="e_fr_energy">     -5.87013478 </i>
    <i name="e_wo_entrp">     -5.86397094 </i>
    <i name="e_0_energy">     -5.86705286 </i>
   </energy>
  </scstep>
  <scstep>
   <time name="dav">    0.04    0.05</time>
   <time name="total">    1.75    4.11</time>
   <energy>
    <i name="e_fr_energy">     -5.87382042 </i>
    <i name="e_wo_entrp">     -5.86610159 </i>
    <i name="e_0_energy">     -5.86996101 </i>
   </energy>
  </scstep>
  <scstep>
   <time name="dav">    0.04    0.04</time>
   <time name="total">    1.86    2.77</time>
   <energy>
    <i name="e_fr_energy">     -5.87237486 </i>
    <i name="e_wo_entrp">     -5.86502834 </i>
    <i name="e_0_energy">     -5.86870160 </i>
   </energy>
  </scstep>
  <scstep>
   <time name="dav">    0.02    0.03</time>
   <time name="total">    1.44    2.35</time>
   <energy>
    <i name="e_fr_energy">     -5.87239132 </i>
    <i name="e_wo_entrp">     -5.86498942 </i>
    <i name="e_0_energy">     -5.86869037 </i>
   </energy>
  </scstep>
  <scstep>
   <time name="dav">    0.03    0.03</time>
   <time name="total">    1.48    1.88</time>
   <energy>
    <i name="e_fr_energy">     -5.87240971 </i>
    <i name="e_wo_entrp">     -5.86500930 </i>
    <i name="e_0_energy">     -5.86870950 </i>
   </energy>
  </scstep>
  <scstep>
   <time name="dav">    0.02    0.03</time>
   <time name="total">    1.49    4.17</time>
   <energy>
    <i name="e_fr_energy">     -5.87240299 </i>
    <i name="e_wo_entrp">     -5.86500804 </i>
    <i name="e_0_energy">     -5.86870552 </i>
   </energy>
  </scstep>
  <scstep>
   <time name="dav">    0.03    0.03</time>
   <time name="total">    1.52    1.80</time>
   <energy>
    <i name="e_fr_energy">     -5.87240282 </i>
    <i name="e_wo_entrp">     -5.86500780 </i>
    <i name="e_0_energy">     -5.86870531 </i>
   </energy>
  </scstep>
  <scstep>
   <time name="dav">    0.02    0.02</time>
   <time name="total">    1.54    4.56</time>
   <energy>
    <i name="e_fr_energy">     -5.87240240 </i>
    <i name="e_wo_entrp">     -5.86500746 </i>
    <i name="e_0_energy">     -5.86870493 </i>
   </energy>
  </scstep>
  <scstep>
   <time name="dav">    0.02    0.01</time>
   <time name="total">    1.51    3.03</time>
   <energy>
    <i name="alphaZ">      3.29317992 </i>
    <i name="ewald">   -226.94489173 </i>
    <i name="hartreedc">    -17.51185427 </i>
    <i name="XCdc">    -19.28805900 </i>
    <i name="pawpsdc">    573.71213861 </i>
    <i name="pawaedc">   -537.22433006 </i>
    <i name="eentropy">     -0.00739496 </i>
    <i name="bandstr">      9.50464588 </i>
    <i name="atom">    208.59416316 </i>
    <i name="e_fr_energy">     -5.87240245 </i>
    <i name="e_wo_entrp">     -5.86500750 </i>
    <i name="e_0_energy">     -5.86870498 </i>
   </energy>
  </scstep>
  <structure>
   <crystal>
    <varray name="basis" >
     <v>       3.34889800       0.00000000       1.93348700 </v>
     <v>       1.11629900       3.15737200       1.93348700 </v>
     <v>       0.00000000       0.00000000       3.86697500 </v>
    </varray>
    <i name="volume">     40.88829843 </i>
    <varray name="rec_basis" >
     <v>       0.29860569      -0.10557300       0.00000000 </v>
     <v>       0.00000000       0.31671909       0.00000000 </v>
     <v>      -0.14930281      -0.10557302       0.25860007 </v>
    </varray>
   </crystal>
   <varray name="positions" >
    <v>       0.87500000       0.87500000       0.87500000 </v>
    <v>       0.12500000       0.12500000       0.12500000 </v>
   </varray>
  </structure>
  <varray name="forces" >
   <v>       0.00000000       0.00000000       0.00000000 </v>
   <v>       0.00000000       0.00000000       0.00000000 </v>
  </varray>
  <varray name="stress" >
   <v>      80.54566918      -0.00000850      -0.00001203 </v>
   <v>      -0.00000850      80.54570420      -0.00000850 </v>
   <v>      -0.00001203      -0.00000850      80.54569736 </v>
  </varray>
  <energy>
   <i name="e_fr_energy">     -5.87240245 </i>
   <i name="e_wo_entrp">     -5.86870498 </i>
   <i name="e_0_energy">     -0.00739496 </i>
  </energy>
  <time name="totalsc">   24.39   45.01</time>
  <eigenvalues>
   <array>
    <dimension dim="1">band</dimension>
    <dimension dim="2">kpoint</dimension>
    <dimension dim="3">spin</dimension>
    <field>eigene</field>
    <field>occ</field>
    <set>
     <set comment="spin 1">
      <set comment="kpoint 1">
       <r>   -5.9260    1.0000 </r>
       <r>    5.8727    0.9871 </r>
       <r>    5.8727    0.9871 </r>
       <r>    5.8727    0.9871 </r>
       <r>    8.3967    0.0000 </r>
       <r>    8.3967    0.0000 </r>
       <r>    8.3967    0.0000 </r>
       <r>    9.1446    0.0000 </r>
      </set>
      <set comment="kpoint 2">
       <r>   -3.6225    1.0000 </r>
       <r>   -1.0122    1.0000 </r>
       <r>    4.6914    1.0000 </r>
       <r>    4.6914    1.0000 </r>
       <r>    7.3586    0.0000 </r>
       <r>    9.1518    0.0000 </r>
       <r>    9.1518    0.0000 </r>
       <r>   13.4468    0.0000 </r>
      </set>
      <set comment="kpoint 3">
       <r>   -1.8368    1.0000 </r>
       <r>   -1.8368    1.0000 </r>
       <r>    3.0548    1.0000 </r>
       <r>    3.0548    1.0000 </r>
       <r>    6.5393    0.0065 </r>
       <r>    6.5393    0.0065 </r>
       <r>   15.8466    0.0000 </r>
       <r>   15.8466    0.0000 </r>
      </set>
     </set>
    </set>
   </array>
  </eigenvalues>
  <separator name="orbital magnetization" >
   <v name="MAGDIPOLOUT">      0.00000000      0.00000000      0.00000000</v>
  </separator>
  <dos>
   <i name="efermi">      6.18778121 </i>
   <total>
    <array>
     <dimension dim="1">gridpoints</dimension>
     <dimension dim="2">spin</dimension>
     <field>energy</field>
     <field>total</field>
     <field>integrated</field>
     <set>
      <set comment="spin 1">
       <r>    -7.9260     0.0000     0.0000 </r>
       <r>    -7.8401     0.0000     0.0000 </r>
       <r>    -7.7542     0.0000     0.0000 </r>
       <r>    -7.6683     0.0000     0.0000 </r>
       <r>    -7.5824     0.0000     0.0000 </r>
       <r>    -7.4964     0.0000     0.0000 </r>
       <r>    -7.4105     0.0000     0.0000 </r>
       <r>    -7.3246     0.0000     0.0000 </r>
       <r>    -7.2387     0.0000     0.0000 </r>
       <r>    -7.1528     0.0000     0.0000 </r>
       <r>    -7.0669     0.0000     0.0000 </r>
       <r>    -6.9810     0.0000     0.0000 </r>
       <r>    -6.8951     0.0000     0.0000 </r>
       <r>    -6.8092     0.0000     0.0000 </r>
       <r>    -6.7233     0.0000     0.0000 </r>
       <r>    -6.6374     0.0000     0.0000 </r>
       <r>    -6.5515     0.0000     0.0000 </r>
       <r>    -6.4655     0.0002     0.0000 </r>
       <r>    -6.3796     0.0017     0.0002 </r>
       <r>    -6.2937     0.0116     0.0012 </r>
       <r>    -6.2078     0.0538     0.0058 </r>
       <r>    -6.1219     0.1741     0.0207 </r>
       <r>    -6.0360     0.3939     0.0546 </r>
       <r>    -5.9501     0.6228     0.1081 </r>
       <r>    -5.8642     0.6886     0.1672 </r>
       <r>    -5.7783     0.5323     0.2130 </r>
       <r>    -5.6924     0.2877     0.2377 </r>
       <r>    -5.6065     0.1087     0.2470 </r>
       <r>    -5.5206     0.0287     0.2495 </r>
       <r>    -5.4346     0.0053     0.2499 </r>
       <r>    -5.3487     0.0007     0.2500 </r>
       <r>    -5.2628     0.0001     0.2500 </r>
       <r>    -5.1769     0.0000     0.2500 </r>
       <r>    -5.0910     0.0000     0.2500 </r>
       <r>    -5.0051     0.0000     0.2500 </r>
       <r>    -4.9192     0.0000     0.2500 </r>
       <r>    -4.8333     0.0000     0.2500 </r>
       <r>    -4.7474     0.0000     0.2500 </r>
       <r>    -4.6615     0.0000     0.2500 </r>
       <r>    -4.5756     0.0000     0.2500 </r>
       <r>    -4.4897     0.0000     0.2500 </r>
       <r>    -4.4037     0.0000     0.2500 </r>
       <r>    -4.3178     0.0000     0.2500 </r>
       <r>    -4.2319     0.0001     0.2500 </r>
       <r>    -4.1460     0.0012     0.2501 </r>
       <r>    -4.0601     0.0102     0.2510 </r>
       <r>    -3.9742     0.0636     0.2564 </r>
       <r>    -3.8883     0.2754     0.2801 </r>
       <r>    -3.8024     0.8338     0.3517 </r>
       <r>    -3.7165     1.7639     0.5033 </r>
       <r>    -3.6306     2.6085     0.7274 </r>
       <r>    -3.5447     2.6972     0.9591 </r>
       <r>    -3.4587     1.9500     1.1266 </r>
       <r>    -3.3728     0.9856     1.2113 </r>
       <r>    -3.2869     0.3482     1.2412 </r>
       <r>    -3.2010     0.0859     1.2486 </r>
       <r>    -3.1151     0.0148     1.2498 </r>
       <r>    -3.0292     0.0018     1.2500 </r>
       <r>    -2.9433     0.0001     1.2500 </r>
       <r>    -2.8574     0.0000     1.2500 </r>
       <r>    -2.7715     0.0000     1.2500 </r>
       <r>    -2.6856     0.0000     1.2500 </r>
       <r>    -2.5997     0.0000     1.2500 </r>
       <r>    -2.5138     0.0000     1.2500 </r>
       <r>    -2.4278     0.0002     1.2500 </r>
       <r>    -2.3419     0.0028     1.2503 </r>
       <r>    -2.2560     0.0234     1.2523 </r>
       <r>    -2.1701     0.1344     1.2638 </r>
       <r>    -2.0842     0.5394     1.3102 </r>
       <r>    -1.9983     1.5124     1.4401 </r>
       <r>    -1.9124     2.9640     1.6947 </r>
       <r>    -1.8265     4.0610     2.0436 </r>
       <r>    -1.7406     3.8903     2.3778 </r>
       <r>    -1.6547     2.6057     2.6017 </r>
       <r>    -1.5688     1.2205     2.7065 </r>
       <r>    -1.4829     0.4038     2.7412 </r>
       <r>    -1.3969     0.1241     2.7519 </r>
       <r>    -1.3110     0.1779     2.7671 </r>
       <r>    -1.2251     0.5693     2.8160 </r>
       <r>    -1.1392     1.3788     2.9345 </r>
       <r>    -1.0533     2.3405     3.1356 </r>
       <r>    -0.9674     2.7779     3.3742 </r>
       <r>    -0.8815     2.3054     3.5723 </r>
       <r>    -0.7956     1.3376     3.6872 </r>
       <r>    -0.7097     0.5425     3.7338 </r>
       <r>    -0.6238     0.1537     3.7470 </r>
       <r>    -0.5379     0.0304     3.7496 </r>
       <r>    -0.4519     0.0042     3.7500 </r>
       <r>    -0.3660     0.0004     3.7500 </r>
       <r>    -0.2801     0.0000     3.7500 </r>
       <r>    -0.1942     0.0000     3.7500 </r>
       <r>    -0.1083     0.0000     3.7500 </r>
       <r>    -0.0224     0.0000     3.7500 </r>
       <r>     0.0635     0.0000     3.7500 </r>
       <r>     0.1494     0.0000     3.7500 </r>
       <r>     0.2353     0.0000     3.7500 </r>
       <r>     0.3212     0.0000     3.7500 </r>
       <r>     0.4071     0.0000     3.7500 </r>
       <r>     0.4930     0.0000     3.7500 </r>
       <r>     0.5790     0.0000     3.7500 </r>
       <r>     0.6649     0.0000     3.7500 </r>
       <r>     0.7508     0.0000     3.7500 </r>
       <r>     0.8367     0.0000     3.7500 </r>
       <r>     0.9226     0.0000     3.7500 </r>
       <r>     1.0085     0.0000     3.7500 </r>
       <r>     1.0944     0.0000     3.7500 </r>
       <r>     1.1803     0.0000     3.7500 </r>
       <r>     1.2662     0.0000     3.7500 </r>
       <r>     1.3521     0.0000     3.7500 </r>
       <r>     1.4380     0.0000     3.7500 </r>
       <r>     1.5239     0.0000     3.7500 </r>
       <r>     1.6099     0.0000     3.7500 </r>
       <r>     1.6958     0.0000     3.7500 </r>
       <r>     1.7817     0.0000     3.7500 </r>
       <r>     1.8676     0.0000     3.7500 </r>
       <r>     1.9535     0.0000     3.7500 </r>
       <r>     2.0394     0.0000     3.7500 </r>
       <r>     2.1253     0.0000     3.7500 </r>
       <r>     2.2112     0.0000     3.7500 </r>
       <r>     2.2971     0.0000     3.7500 </r>
       <r>     2.3830     0.0000     3.7500 </r>
       <r>     2.4689     0.0003     3.7500 </r>
       <r>     2.5548     0.0033     3.7503 </r>
       <r>     2.6408     0.0263     3.7526 </r>
       <r>     2.7267     0.1477     3.7652 </r>
       <r>     2.8126     0.5799     3.8151 </r>
       <r>     2.8985     1.5913     3.9518 </r>
       <r>     2.9844     3.0518     4.2139 </r>
       <r>     3.0703     4.0918     4.5655 </r>
       <r>     3.1562     3.8360     4.8950 </r>
       <r>     3.2421     2.5143     5.1110 </r>
       <r>     3.3280     1.1521     5.2100 </r>
       <r>     3.4139     0.3689     5.2417 </r>
       <r>     3.4998     0.0825     5.2488 </r>
       <r>     3.5858     0.0129     5.2499 </r>
       <r>     3.6717     0.0014     5.2500 </r>
       <r>     3.7576     0.0001     5.2500 </r>
       <r>     3.8435     0.0000     5.2500 </r>
       <r>     3.9294     0.0000     5.2500 </r>
       <r>     4.0153     0.0000     5.2500 </r>
       <r>     4.1012     0.0003     5.2500 </r>
       <r>     4.1871     0.0039     5.2504 </r>
       <r>     4.2730     0.0318     5.2531 </r>
       <r>     4.3589     0.1819     5.2687 </r>
       <r>     4.4448     0.7276     5.3312 </r>
       <r>     4.5307     2.0332     5.5059 </r>
       <r>     4.6167     3.9709     5.8470 </r>
       <r>     4.7026     5.4217     6.3128 </r>
       <r>     4.7885     5.1758     6.7574 </r>
       <r>     4.8744     3.4547     7.0542 </r>
       <r>     4.9603     1.6120     7.1927 </r>
       <r>     5.0462     0.5257     7.2379 </r>
       <r>     5.1321     0.1197     7.2482 </r>
       <r>     5.2180     0.0191     7.2498 </r>
       <r>     5.3039     0.0023     7.2500 </r>
       <r>     5.3898     0.0027     7.2502 </r>
       <r>     5.4757     0.0190     7.2519 </r>
       <r>     5.5616     0.0997     7.2604 </r>
       <r>     5.6476     0.3646     7.2918 </r>
       <r>     5.7335     0.9317     7.3718 </r>
       <r>     5.8194     1.6642     7.5148 </r>
       <r>     5.9053     2.0782     7.6933 </r>
       <r>     5.9912     1.8154     7.8493 </r>
       <r>     6.0771     1.1163     7.9452 </r>
       <r>     6.1630     0.5314     7.9908 </r>
       <r>     6.2489     0.4227     8.0271 </r>
       <r>     6.3348     0.9743     8.1108 </r>
       <r>     6.4207     2.2190     8.3015 </r>
       <r>     6.5066     3.6290     8.6132 </r>
       <r>     6.5926     4.1565     8.9703 </r>
       <r>     6.6785     3.3290     9.2563 </r>
       <r>     6.7644     1.8642     9.4164 </r>
       <r>     6.8503     0.7313     9.4793 </r>
       <r>     6.9362     0.2140     9.4977 </r>
       <r>     7.0221     0.1226     9.5082 </r>
       <r>     7.1080     0.3487     9.5381 </r>
       <r>     7.1939     0.9769     9.6221 </r>
       <r>     7.2798     1.9395     9.7887 </r>
       <r>     7.3657     2.6930    10.0200 </r>
       <r>     7.4516     2.6144    10.2446 </r>
       <r>     7.5375     1.7747    10.3971 </r>
       <r>     7.6235     0.8421    10.4694 </r>
       <r>     7.7094     0.2793    10.4934 </r>
       <r>     7.7953     0.0648    10.4990 </r>
       <r>     7.8812     0.0115    10.5000 </r>
       <r>     7.9671     0.0104    10.5009 </r>
       <r>     8.0530     0.0556    10.5057 </r>
       <r>     8.1389     0.2325    10.5256 </r>
       <r>     8.2248     0.6806    10.5841 </r>
       <r>     8.3107     1.3927    10.7037 </r>
       <r>     8.3966     1.9923    10.8749 </r>
       <r>     8.4825     1.9927    11.0461 </r>
       <r>     8.5684     1.3940    11.1658 </r>
       <r>     8.6544     0.6866    11.2248 </r>
       <r>     8.7403     0.2752    11.2485 </r>
       <r>     8.8262     0.2907    11.2734 </r>
       <r>     8.9121     0.9198    11.3525 </r>
       <r>     8.9980     2.4648    11.5642 </r>
       <r>     9.0839     4.6599    11.9645 </r>
       <r>     9.1698     6.1623    12.4939 </r>
       <r>     9.2557     5.6984    12.9835 </r>
       <r>     9.3416     3.6846    13.3000 </r>
       <r>     9.4275     1.6656    13.4431 </r>
       <r>     9.5134     0.5262    13.4883 </r>
       <r>     9.5994     0.1161    13.4983 </r>
       <r>     9.6853     0.0179    13.4998 </r>
       <r>     9.7712     0.0019    13.5000 </r>
       <r>     9.8571     0.0001    13.5000 </r>
       <r>     9.9430     0.0000    13.5000 </r>
       <r>    10.0289     0.0000    13.5000 </r>
       <r>    10.1148     0.0000    13.5000 </r>
       <r>    10.2007     0.0000    13.5000 </r>
       <r>    10.2866     0.0000    13.5000 </r>
       <r>    10.3725     0.0000    13.5000 </r>
       <r>    10.4584     0.0000    13.5000 </r>
       <r>    10.5443     0.0000    13.5000 </r>
       <r>    10.6303     0.0000    13.5000 </r>
       <r>    10.7162     0.0000    13.5000 </r>
       <r>    10.8021     0.0000    13.5000 </r>
       <r>    10.8880     0.0000    13.5000 </r>
       <r>    10.9739     0.0000    13.5000 </r>
       <r>    11.0598     0.0000    13.5000 </r>
       <r>    11.1457     0.0000    13.5000 </r>
       <r>    11.2316     0.0000    13.5000 </r>
       <r>    11.3175     0.0000    13.5000 </r>
       <r>    11.4034     0.0000    13.5000 </r>
       <r>    11.4893     0.0000    13.5000 </r>
       <r>    11.5752     0.0000    13.5000 </r>
       <r>    11.6612     0.0000    13.5000 </r>
       <r>    11.7471     0.0000    13.5000 </r>
       <r>    11.8330     0.0000    13.5000 </r>
       <r>    11.9189     0.0000    13.5000 </r>
       <r>    12.0048     0.0000    13.5000 </r>
       <r>    12.0907     0.0000    13.5000 </r>
       <r>    12.1766     0.0000    13.5000 </r>
       <r>    12.2625     0.0000    13.5000 </r>
       <r>    12.3484     0.0000    13.5000 </r>
       <r>    12.4343     0.0000    13.5000 </r>
       <r>    12.5202     0.0000    13.5000 </r>
       <r>    12.6061     0.0000    13.5000 </r>
       <r>    12.6921     0.0000    13.5000 </r>
       <r>    12.7780     0.0000    13.5000 </r>
       <r>    12.8639     0.0002    13.5000 </r>
       <r>    12.9498     0.0023    13.5002 </r>
       <r>    13.0357     0.0187    13.5018 </r>
       <r>    13.1216     0.1038    13.5107 </r>
       <r>    13.2075     0.4026    13.5453 </r>
       <r>    13.2934     1.0913    13.6391 </r>
       <r>    13.3793     2.0674    13.8167 </r>
       <r>    13.4652     2.7380    14.0519 </r>
       <r>    13.5511     2.5355    14.2697 </r>
       <r>    13.6371     1.6416    14.4108 </r>
       <r>    13.7230     0.7430    14.4746 </r>
       <r>    13.8089     0.2350    14.4948 </r>
       <r>    13.8948     0.0519    14.4992 </r>
       <r>    13.9807     0.0080    14.4999 </r>
       <r>    14.0666     0.0009    14.5000 </r>
       <r>    14.1525     0.0001    14.5000 </r>
       <r>    14.2384     0.0000    14.5000 </r>
       <r>    14.3243     0.0000    14.5000 </r>
       <r>    14.4102     0.0000    14.5000 </r>
       <r>    14.4961     0.0000    14.5000 </r>
       <r>    14.5820     0.0000    14.5000 </r>
       <r>    14.6680     0.0000    14.5000 </r>
       <r>    14.7539     0.0000    14.5000 </r>
       <r>    14.8398     0.0000    14.5000 </r>
       <r>    14.9257     0.0000    14.5000 </r>
       <r>    15.0116     0.0000    14.5000 </r>
       <r>    15.0975     0.0000    14.5000 </r>
       <r>    15.1834     0.0000    14.5000 </r>
       <r>    15.2693     0.0004    14.5000 </r>
       <r>    15.3552     0.0041    14.5004 </r>
       <r>    15.4411     0.0317    14.5031 </r>
       <r>    15.5270     0.1721    14.5179 </r>
       <r>    15.6129     0.6520    14.5739 </r>
       <r>    15.6989     1.7261    14.7222 </r>
       <r>    15.7848     3.1938    14.9966 </r>
       <r>    15.8707     4.1315    15.3515 </r>
       <r>    15.9566     3.7369    15.6725 </r>
       <r>    16.0425     2.3631    15.8755 </r>
       <r>    16.1284     1.0447    15.9653 </r>
       <r>    16.2143     0.3227    15.9930 </r>
       <r>    16.3002     0.0696    15.9990 </r>
       <r>    16.3861     0.0105    15.9999 </r>
       <r>    16.4720     0.0011    16.0000 </r>
       <r>    16.5579     0.0001    16.0000 </r>
       <r>    16.6439     0.0000    16.0000 </r>
       <r>    16.7298     0.0000    16.0000 </r>
       <r>    16.8157     0.0000    16.0000 </r>
       <r>    16.9016     0.0000    16.0000 </r>
       <r>    16.9875     0.0000    16.0000 </r>
       <r>    17.0734     0.0000    16.0000 </r>
       <r>    17.1593     0.0000    16.0000 </r>
       <r>    17.2452     0.0000    16.0000 </r>
       <r>    17.3311     0.0000    16.0000 </r>
       <r>    17.4170     0.0000    16.0000 </r>
       <r>    17.5029     0.0000    16.0000 </r>
       <r>    17.5888     0.0000    16.0000 </r>
       <r>    17.6748     0.0000    16.0000 </r>
       <r>    17.7607     0.0000    16.0000 </r>
       <r>    17.8466     0.0000    16.0000 </r>
      </set>
     </set>
    </array>
   </total>
  </dos>
 </calculation>
 <structure name="finalpos" >
  <crystal>
   <varray name="basis" >
    <v>       3.34889800       0.00000000       1.93348700 </v>
    <v>       1.11629900       3.15737200       1.93348700 </v>
    <v>       0.00000000       0.00000000       3.86697500 </v>
   </varray>
   <i name="volume">     40.88829843 </i>
   <varray name="rec_basis" >
    <v>       0.29860569      -0.10557300       0.00000000 </v>
    <v>       0.00000000       0.31671909       0.00000000 </v>
    <v>      -0.14930281      -0.10557302       0.25860007 </v>
   </varray>
  </crystal>
  <varray name="positions" >
   <v>       0.87500000       0.87500000       0.87500000 </v>
   <v>       0.12500000       0.12500000       0.12500000 </v>
  </varray>
 </structure>
</modeling>
