LAMMPS data file via write_data, version 19 Oct 2016, timestep = 6

4 atoms
1 atom types

-3.1648967085110276e-03 4.0420948967085097e+00 xlo xhi
-3.1648967085109543e-03 4.0420948967085097e+00 ylo yhi
-3.1648967085110627e-03 4.0420948967085097e+00 zlo zhi
0.0000000000000000e+00 0.0000000000000000e+00 0.0000000000000000e+00 xy xz yz

Masses

1 26.9815

Atoms # charge

1 1 0.0000000000000000e+00 -3.1648967085110276e-03 -3.1648967085109543e-03 -3.1648967085110627e-03 0 0 0
2 1 0.0000000000000000e+00 -3.1648967085110276e-03 2.0194649999999994e+00 2.0194649999999994e+00 0 0 0
3 1 0.0000000000000000e+00 2.0194649999999994e+00 -3.1648967085109543e-03 2.0194649999999994e+00 0 0 0
4 1 0.0000000000000000e+00 2.0194649999999994e+00 2.0194649999999994e+00 -3.1648967085110627e-03 0 0 0

Velocities

1 0.0000000000000000e+00 0.0000000000000000e+00 0.0000000000000000e+00
2 0.0000000000000000e+00 0.0000000000000000e+00 0.0000000000000000e+00
3 0.0000000000000000e+00 0.0000000000000000e+00 0.0000000000000000e+00
4 0.0000000000000000e+00 0.0000000000000000e+00 0.0000000000000000e+00
