datafile (written by JARVIS-Tools) 

4 	 atoms 
1  atom types
0.0 4.03893  xlo xhi
0.0 4.03893  ylo yhi
0.0 4.03893  zlo zhi
0.0 0.0 0.0  xy xz yz


Atoms 

     1   1 0.000000 0.0 0.0 0.0
     2   1 0.000000 0.0 2.019465 2.019465
     3   1 0.000000 2.019465 0.0 2.019465
     4   1 0.000000 2.019465 2.019465 0.0
