datafile (written by JARVIS-FF) 

960 	 atoms 
1  atom types
0.0 28.637824408  xlo xhi
0.0 24.965876511  ylo yhi
0.0 47.385819451  zlo zhi
5.727564881 0E-9 0E-9  xy xz yz


Atoms 

     1   1 0.000000 21.239719770 21.954641406 12.775588578
     2   1 0.000000 18.375937329 9.471703150 12.775588578
     3   1 0.000000 26.967284651 21.954641406 12.775588578
     4   1 0.000000 24.103502210 9.471703150 12.775588578
     5   1 0.000000 32.694849533 21.954641406 12.775588578
     6   1 0.000000 29.831067092 9.471703150 12.775588578
     7   1 0.000000 9.784590006 21.954641406 12.775588578
     8   1 0.000000 6.920807565 9.471703150 12.775588578
     9   1 0.000000 15.512154888 21.954641406 12.775588578
    10   1 0.000000 12.648372447 9.471703150 12.775588578
    11   1 0.000000 15.512154888 0.930745396 13.704722292
    12   1 0.000000 18.375937329 13.413683652 13.704722292
    13   1 0.000000 21.239719770 0.930745396 13.704722292
    14   1 0.000000 24.103502210 13.413683652 13.704722292
    15   1 0.000000 26.967284651 0.930745396 13.704722292
    16   1 0.000000 29.831067092 13.413683652 13.704722292
    17   1 0.000000 4.057025125 0.930745396 13.704722292
    18   1 0.000000 6.920807565 13.413683652 13.704722292
    19   1 0.000000 9.784590006 0.930745396 13.704722292
    20   1 0.000000 12.648372447 13.413683652 13.704722292
    21   1 0.000000 15.512154888 4.872725898 14.633856007
    22   1 0.000000 18.375937329 17.355664154 14.633856007
    23   1 0.000000 21.239719770 4.872725898 14.633856007
    24   1 0.000000 24.103502210 17.355664154 14.633856007
    25   1 0.000000 26.967284651 4.872725898 14.633856007
    26   1 0.000000 29.831067092 17.355664154 14.633856007
    27   1 0.000000 4.057025125 4.872725898 14.633856007
    28   1 0.000000 6.920807565 17.355664154 14.633856007
    29   1 0.000000 9.784590006 4.872725898 14.633856007
    30   1 0.000000 12.648372447 17.355664154 14.633856007
    31   1 0.000000 22.671610990 23.597133282 14.633856007
    32   1 0.000000 19.807828549 11.114195026 14.633856007
    33   1 0.000000 28.399175872 23.597133282 14.633856007
    34   1 0.000000 25.535393431 11.114195026 14.633856007
    35   1 0.000000 5.488916345 23.597133282 14.633856007
    36   1 0.000000 2.625133904 11.114195026 14.633856007
    37   1 0.000000 11.216481227 23.597133282 14.633856007
    38   1 0.000000 8.352698786 11.114195026 14.633856007
    39   1 0.000000 16.944046108 23.597133282 14.633856007
    40   1 0.000000 14.080263668 11.114195026 14.633856007
    41   1 0.000000 16.944046108 2.573237272 15.562989722
    42   1 0.000000 19.807828549 15.056175528 15.562989722
    43   1 0.000000 22.671610990 2.573237272 15.562989722
    44   1 0.000000 25.535393431 15.056175528 15.562989722
    45   1 0.000000 28.399175872 2.573237272 15.562989722
    46   1 0.000000 31.262958313 15.056175528 15.562989722
    47   1 0.000000 5.488916345 2.573237272 15.562989722
    48   1 0.000000 8.352698786 15.056175528 15.562989722
    49   1 0.000000 11.216481227 2.573237272 15.562989722
    50   1 0.000000 14.080263668 15.056175528 15.562989722
    51   1 0.000000 19.807828549 7.172214524 13.704722292
    52   1 0.000000 22.671610990 19.655152780 13.704722292
    53   1 0.000000 25.535393431 7.172214524 13.704722292
    54   1 0.000000 28.399175872 19.655152780 13.704722292
    55   1 0.000000 2.625133904 7.172214524 13.704722292
    56   1 0.000000 5.488916345 19.655152780 13.704722292
    57   1 0.000000 8.352698786 7.172214524 13.704722292
    58   1 0.000000 11.216481227 19.655152780 13.704722292
    59   1 0.000000 14.080263668 7.172214524 13.704722292
    60   1 0.000000 16.944046108 19.655152780 13.704722292
    61   1 0.000000 19.807828549 23.597133282 14.633856007
    62   1 0.000000 16.944046108 11.114195026 14.633856007
    63   1 0.000000 25.535393431 23.597133282 14.633856007
    64   1 0.000000 22.671610990 11.114195026 14.633856007
    65   1 0.000000 31.262958313 23.597133282 14.633856007
    66   1 0.000000 28.399175872 11.114195026 14.633856007
    67   1 0.000000 8.352698786 23.597133282 14.633856007
    68   1 0.000000 5.488916345 11.114195026 14.633856007
    69   1 0.000000 14.080263668 23.597133282 14.633856007
    70   1 0.000000 11.216481227 11.114195026 14.633856007
    71   1 0.000000 16.944046108 3.230234022 12.775588578
    72   1 0.000000 19.807828549 15.713172278 12.775588578
    73   1 0.000000 22.671610990 3.230234022 12.775588578
    74   1 0.000000 25.535393431 15.713172278 12.775588578
    75   1 0.000000 28.399175872 3.230234022 12.775588578
    76   1 0.000000 31.262958313 15.713172278 12.775588578
    77   1 0.000000 5.488916345 3.230234022 12.775588578
    78   1 0.000000 8.352698786 15.713172278 12.775588578
    79   1 0.000000 11.216481227 3.230234022 12.775588578
    80   1 0.000000 14.080263668 15.713172278 12.775588578
    81   1 0.000000 16.944046108 7.172214524 13.704722292
    82   1 0.000000 19.807828549 19.655152780 13.704722292
    83   1 0.000000 22.671610990 7.172214524 13.704722292
    84   1 0.000000 25.535393431 19.655152780 13.704722292
    85   1 0.000000 28.399175872 7.172214524 13.704722292
    86   1 0.000000 31.262958313 19.655152780 13.704722292
    87   1 0.000000 5.488916345 7.172214524 13.704722292
    88   1 0.000000 8.352698786 19.655152780 13.704722292
    89   1 0.000000 11.216481227 7.172214524 13.704722292
    90   1 0.000000 14.080263668 19.655152780 13.704722292
    91   1 0.000000 24.103502210 21.954641406 12.775588578
    92   1 0.000000 21.239719770 9.471703150 12.775588578
    93   1 0.000000 29.831067092 21.954641406 12.775588578
    94   1 0.000000 26.967284651 9.471703150 12.775588578
    95   1 0.000000 6.920807565 21.954641406 12.775588578
    96   1 0.000000 4.057025125 9.471703150 12.775588578
    97   1 0.000000 12.648372447 21.954641406 12.775588578
    98   1 0.000000 9.784590006 9.471703150 12.775588578
    99   1 0.000000 18.375937329 21.954641406 12.775588578
   100   1 0.000000 15.512154888 9.471703150 12.775588578
   101   1 0.000000 18.375937329 0.930745396 13.704722292
   102   1 0.000000 21.239719770 13.413683652 13.704722292
   103   1 0.000000 24.103502210 0.930745396 13.704722292
   104   1 0.000000 26.967284651 13.413683652 13.704722292
   105   1 0.000000 1.193242684 0.930745396 13.704722292
   106   1 0.000000 4.057025125 13.413683652 13.704722292
   107   1 0.000000 6.920807565 0.930745396 13.704722292
   108   1 0.000000 9.784590006 13.413683652 13.704722292
   109   1 0.000000 12.648372447 0.930745396 13.704722292
   110   1 0.000000 15.512154888 13.413683652 13.704722292
   111   1 0.000000 18.375937329 4.872725898 14.633856007
   112   1 0.000000 21.239719770 17.355664154 14.633856007
   113   1 0.000000 24.103502210 4.872725898 14.633856007
   114   1 0.000000 26.967284651 17.355664154 14.633856007
   115   1 0.000000 1.193242684 4.872725898 14.633856007
   116   1 0.000000 4.057025125 17.355664154 14.633856007
   117   1 0.000000 6.920807565 4.872725898 14.633856007
   118   1 0.000000 9.784590006 17.355664154 14.633856007
   119   1 0.000000 12.648372447 4.872725898 14.633856007
   120   1 0.000000 15.512154888 17.355664154 14.633856007
   121   1 0.000000 18.375937329 21.297644656 15.562989722
   122   1 0.000000 15.512154888 8.814706400 15.562989722
   123   1 0.000000 24.103502210 21.297644656 15.562989722
   124   1 0.000000 21.239719770 8.814706400 15.562989722
   125   1 0.000000 29.831067092 21.297644656 15.562989722
   126   1 0.000000 26.967284651 8.814706400 15.562989722
   127   1 0.000000 6.920807565 21.297644656 15.562989722
   128   1 0.000000 4.057025125 8.814706400 15.562989722
   129   1 0.000000 12.648372447 21.297644656 15.562989722
   130   1 0.000000 9.784590006 8.814706400 15.562989722
   131   1 0.000000 12.648372447 0.273748646 16.492123436
   132   1 0.000000 15.512154888 12.756686902 16.492123436
   133   1 0.000000 18.375937329 0.273748646 16.492123436
   134   1 0.000000 21.239719770 12.756686902 16.492123436
   135   1 0.000000 24.103502210 0.273748646 16.492123436
   136   1 0.000000 26.967284651 12.756686902 16.492123436
   137   1 0.000000 1.193242684 0.273748646 16.492123436
   138   1 0.000000 4.057025125 12.756686902 16.492123436
   139   1 0.000000 6.920807565 0.273748646 16.492123436
   140   1 0.000000 9.784590006 12.756686902 16.492123436
   141   1 0.000000 12.648372447 4.215729148 17.421257151
   142   1 0.000000 15.512154888 16.698667404 17.421257151
   143   1 0.000000 18.375937329 4.215729148 17.421257151
   144   1 0.000000 21.239719770 16.698667404 17.421257151
   145   1 0.000000 24.103502210 4.215729148 17.421257151
   146   1 0.000000 26.967284651 16.698667404 17.421257151
   147   1 0.000000 1.193242684 4.215729148 17.421257151
   148   1 0.000000 4.057025125 16.698667404 17.421257151
   149   1 0.000000 6.920807565 4.215729148 17.421257151
   150   1 0.000000 9.784590006 16.698667404 17.421257151
   151   1 0.000000 19.807828549 22.940136532 17.421257151
   152   1 0.000000 16.944046108 10.457198276 17.421257151
   153   1 0.000000 25.535393431 22.940136532 17.421257151
   154   1 0.000000 22.671610990 10.457198276 17.421257151
   155   1 0.000000 31.262958313 22.940136532 17.421257151
   156   1 0.000000 28.399175872 10.457198276 17.421257151
   157   1 0.000000 8.352698786 22.940136532 17.421257151
   158   1 0.000000 5.488916345 10.457198276 17.421257151
   159   1 0.000000 14.080263668 22.940136532 17.421257151
   160   1 0.000000 11.216481227 10.457198276 17.421257151
   161   1 0.000000 14.080263668 1.916240522 18.350390866
   162   1 0.000000 16.944046108 14.399178778 18.350390866
   163   1 0.000000 19.807828549 1.916240522 18.350390866
   164   1 0.000000 22.671610990 14.399178778 18.350390866
   165   1 0.000000 25.535393431 1.916240522 18.350390866
   166   1 0.000000 28.399175872 14.399178778 18.350390866
   167   1 0.000000 2.625133904 1.916240522 18.350390866
   168   1 0.000000 5.488916345 14.399178778 18.350390866
   169   1 0.000000 8.352698786 1.916240522 18.350390866
   170   1 0.000000 11.216481227 14.399178778 18.350390866
   171   1 0.000000 16.944046108 6.515217774 16.492123436
   172   1 0.000000 19.807828549 18.998156030 16.492123436
   173   1 0.000000 22.671610990 6.515217774 16.492123436
   174   1 0.000000 25.535393431 18.998156030 16.492123436
   175   1 0.000000 28.399175872 6.515217774 16.492123436
   176   1 0.000000 31.262958313 18.998156030 16.492123436
   177   1 0.000000 5.488916345 6.515217774 16.492123436
   178   1 0.000000 8.352698786 18.998156030 16.492123436
   179   1 0.000000 11.216481227 6.515217774 16.492123436
   180   1 0.000000 14.080263668 18.998156030 16.492123436
   181   1 0.000000 16.944046108 22.940136532 17.421257151
   182   1 0.000000 14.080263668 10.457198276 17.421257151
   183   1 0.000000 22.671610990 22.940136532 17.421257151
   184   1 0.000000 19.807828549 10.457198276 17.421257151
   185   1 0.000000 28.399175872 22.940136532 17.421257151
   186   1 0.000000 25.535393431 10.457198276 17.421257151
   187   1 0.000000 5.488916345 22.940136532 17.421257151
   188   1 0.000000 2.625133904 10.457198276 17.421257151
   189   1 0.000000 11.216481227 22.940136532 17.421257151
   190   1 0.000000 8.352698786 10.457198276 17.421257151
   191   1 0.000000 14.080263668 2.573237272 15.562989722
   192   1 0.000000 16.944046108 15.056175528 15.562989722
   193   1 0.000000 19.807828549 2.573237272 15.562989722
   194   1 0.000000 22.671610990 15.056175528 15.562989722
   195   1 0.000000 25.535393431 2.573237272 15.562989722
   196   1 0.000000 28.399175872 15.056175528 15.562989722
   197   1 0.000000 2.625133904 2.573237272 15.562989722
   198   1 0.000000 5.488916345 15.056175528 15.562989722
   199   1 0.000000 8.352698786 2.573237272 15.562989722
   200   1 0.000000 11.216481227 15.056175528 15.562989722
   201   1 0.000000 14.080263668 6.515217774 16.492123436
   202   1 0.000000 16.944046108 18.998156030 16.492123436
   203   1 0.000000 19.807828549 6.515217774 16.492123436
   204   1 0.000000 22.671610990 18.998156030 16.492123436
   205   1 0.000000 25.535393431 6.515217774 16.492123436
   206   1 0.000000 28.399175872 18.998156030 16.492123436
   207   1 0.000000 2.625133904 6.515217774 16.492123436
   208   1 0.000000 5.488916345 18.998156030 16.492123436
   209   1 0.000000 8.352698786 6.515217774 16.492123436
   210   1 0.000000 11.216481227 18.998156030 16.492123436
   211   1 0.000000 21.239719770 21.297644656 15.562989722
   212   1 0.000000 18.375937329 8.814706400 15.562989722
   213   1 0.000000 26.967284651 21.297644656 15.562989722
   214   1 0.000000 24.103502210 8.814706400 15.562989722
   215   1 0.000000 32.694849533 21.297644656 15.562989722
   216   1 0.000000 29.831067092 8.814706400 15.562989722
   217   1 0.000000 9.784590006 21.297644656 15.562989722
   218   1 0.000000 6.920807565 8.814706400 15.562989722
   219   1 0.000000 15.512154888 21.297644656 15.562989722
   220   1 0.000000 12.648372447 8.814706400 15.562989722
   221   1 0.000000 15.512154888 0.273748646 16.492123436
   222   1 0.000000 18.375937329 12.756686902 16.492123436
   223   1 0.000000 21.239719770 0.273748646 16.492123436
   224   1 0.000000 24.103502210 12.756686902 16.492123436
   225   1 0.000000 26.967284651 0.273748646 16.492123436
   226   1 0.000000 29.831067092 12.756686902 16.492123436
   227   1 0.000000 4.057025125 0.273748646 16.492123436
   228   1 0.000000 6.920807565 12.756686902 16.492123436
   229   1 0.000000 9.784590006 0.273748646 16.492123436
   230   1 0.000000 12.648372447 12.756686902 16.492123436
   231   1 0.000000 15.512154888 4.215729148 17.421257151
   232   1 0.000000 18.375937329 16.698667404 17.421257151
   233   1 0.000000 21.239719770 4.215729148 17.421257151
   234   1 0.000000 24.103502210 16.698667404 17.421257151
   235   1 0.000000 26.967284651 4.215729148 17.421257151
   236   1 0.000000 29.831067092 16.698667404 17.421257151
   237   1 0.000000 4.057025125 4.215729148 17.421257151
   238   1 0.000000 6.920807565 16.698667404 17.421257151
   239   1 0.000000 9.784590006 4.215729148 17.421257151
   240   1 0.000000 12.648372447 16.698667404 17.421257151
   241   1 0.000000 15.512154888 20.640647906 18.350390866
   242   1 0.000000 12.648372447 8.157709650 18.350390866
   243   1 0.000000 21.239719770 20.640647906 18.350390866
   244   1 0.000000 18.375937329 8.157709650 18.350390866
   245   1 0.000000 26.967284651 20.640647906 18.350390866
   246   1 0.000000 24.103502210 8.157709650 18.350390866
   247   1 0.000000 32.694849533 20.640647906 18.350390866
   248   1 0.000000 29.831067092 8.157709650 18.350390866
   249   1 0.000000 9.784590006 20.640647906 18.350390866
   250   1 0.000000 6.920807565 8.157709650 18.350390866
   251   1 0.000000 15.512154888 24.582628408 19.279524581
   252   1 0.000000 12.648372447 12.099690152 19.279524581
   253   1 0.000000 21.239719770 24.582628408 19.279524581
   254   1 0.000000 18.375937329 12.099690152 19.279524581
   255   1 0.000000 26.967284651 24.582628408 19.279524581
   256   1 0.000000 24.103502210 12.099690152 19.279524581
   257   1 0.000000 32.694849533 24.582628408 19.279524581
   258   1 0.000000 29.831067092 12.099690152 19.279524581
   259   1 0.000000 9.784590006 24.582628408 19.279524581
   260   1 0.000000 6.920807565 12.099690152 19.279524581
   261   1 0.000000 9.784590006 3.558732398 20.208658295
   262   1 0.000000 12.648372447 16.041670653 20.208658295
   263   1 0.000000 15.512154888 3.558732398 20.208658295
   264   1 0.000000 18.375937329 16.041670653 20.208658295
   265   1 0.000000 21.239719770 3.558732398 20.208658295
   266   1 0.000000 24.103502210 16.041670653 20.208658295
   267   1 0.000000 26.967284651 3.558732398 20.208658295
   268   1 0.000000 29.831067092 16.041670653 20.208658295
   269   1 0.000000 4.057025125 3.558732398 20.208658295
   270   1 0.000000 6.920807565 16.041670653 20.208658295
   271   1 0.000000 16.944046108 22.283139781 20.208658295
   272   1 0.000000 14.080263668 9.800201525 20.208658295
   273   1 0.000000 22.671610990 22.283139781 20.208658295
   274   1 0.000000 19.807828549 9.800201525 20.208658295
   275   1 0.000000 28.399175872 22.283139781 20.208658295
   276   1 0.000000 25.535393431 9.800201525 20.208658295
   277   1 0.000000 5.488916345 22.283139781 20.208658295
   278   1 0.000000 2.625133904 9.800201525 20.208658295
   279   1 0.000000 11.216481227 22.283139781 20.208658295
   280   1 0.000000 8.352698786 9.800201525 20.208658295
   281   1 0.000000 11.216481227 1.259243771 21.137792010
   282   1 0.000000 14.080263668 13.742182027 21.137792010
   283   1 0.000000 16.944046108 1.259243771 21.137792010
   284   1 0.000000 19.807828549 13.742182027 21.137792010
   285   1 0.000000 22.671610990 1.259243771 21.137792010
   286   1 0.000000 25.535393431 13.742182027 21.137792010
   287   1 0.000000 28.399175872 1.259243771 21.137792010
   288   1 0.000000 31.262958313 13.742182027 21.137792010
   289   1 0.000000 5.488916345 1.259243771 21.137792010
   290   1 0.000000 8.352698786 13.742182027 21.137792010
   291   1 0.000000 14.080263668 5.858221024 19.279524581
   292   1 0.000000 16.944046108 18.341159280 19.279524581
   293   1 0.000000 19.807828549 5.858221024 19.279524581
   294   1 0.000000 22.671610990 18.341159280 19.279524581
   295   1 0.000000 25.535393431 5.858221024 19.279524581
   296   1 0.000000 28.399175872 18.341159280 19.279524581
   297   1 0.000000 2.625133904 5.858221024 19.279524581
   298   1 0.000000 5.488916345 18.341159280 19.279524581
   299   1 0.000000 8.352698786 5.858221024 19.279524581
   300   1 0.000000 11.216481227 18.341159280 19.279524581
   301   1 0.000000 14.080263668 22.283139781 20.208658295
   302   1 0.000000 11.216481227 9.800201525 20.208658295
   303   1 0.000000 19.807828549 22.283139781 20.208658295
   304   1 0.000000 16.944046108 9.800201525 20.208658295
   305   1 0.000000 25.535393431 22.283139781 20.208658295
   306   1 0.000000 22.671610990 9.800201525 20.208658295
   307   1 0.000000 31.262958313 22.283139781 20.208658295
   308   1 0.000000 28.399175872 9.800201525 20.208658295
   309   1 0.000000 8.352698786 22.283139781 20.208658295
   310   1 0.000000 5.488916345 9.800201525 20.208658295
   311   1 0.000000 11.216481227 1.916240522 18.350390866
   312   1 0.000000 14.080263668 14.399178778 18.350390866
   313   1 0.000000 16.944046108 1.916240522 18.350390866
   314   1 0.000000 19.807828549 14.399178778 18.350390866
   315   1 0.000000 22.671610990 1.916240522 18.350390866
   316   1 0.000000 25.535393431 14.399178778 18.350390866
   317   1 0.000000 28.399175872 1.916240522 18.350390866
   318   1 0.000000 31.262958313 14.399178778 18.350390866
   319   1 0.000000 5.488916345 1.916240522 18.350390866
   320   1 0.000000 8.352698786 14.399178778 18.350390866
   321   1 0.000000 11.216481227 5.858221024 19.279524581
   322   1 0.000000 14.080263668 18.341159280 19.279524581
   323   1 0.000000 16.944046108 5.858221024 19.279524581
   324   1 0.000000 19.807828549 18.341159280 19.279524581
   325   1 0.000000 22.671610990 5.858221024 19.279524581
   326   1 0.000000 25.535393431 18.341159280 19.279524581
   327   1 0.000000 28.399175872 5.858221024 19.279524581
   328   1 0.000000 31.262958313 18.341159280 19.279524581
   329   1 0.000000 5.488916345 5.858221024 19.279524581
   330   1 0.000000 8.352698786 18.341159280 19.279524581
   331   1 0.000000 18.375937329 20.640647906 18.350390866
   332   1 0.000000 15.512154888 8.157709650 18.350390866
   333   1 0.000000 24.103502210 20.640647906 18.350390866
   334   1 0.000000 21.239719770 8.157709650 18.350390866
   335   1 0.000000 29.831067092 20.640647906 18.350390866
   336   1 0.000000 26.967284651 8.157709650 18.350390866
   337   1 0.000000 6.920807565 20.640647906 18.350390866
   338   1 0.000000 4.057025125 8.157709650 18.350390866
   339   1 0.000000 12.648372447 20.640647906 18.350390866
   340   1 0.000000 9.784590006 8.157709650 18.350390866
   341   1 0.000000 18.375937329 24.582628408 19.279524581
   342   1 0.000000 15.512154888 12.099690152 19.279524581
   343   1 0.000000 24.103502210 24.582628408 19.279524581
   344   1 0.000000 21.239719770 12.099690152 19.279524581
   345   1 0.000000 29.831067092 24.582628408 19.279524581
   346   1 0.000000 26.967284651 12.099690152 19.279524581
   347   1 0.000000 6.920807565 24.582628408 19.279524581
   348   1 0.000000 4.057025125 12.099690152 19.279524581
   349   1 0.000000 12.648372447 24.582628408 19.279524581
   350   1 0.000000 9.784590006 12.099690152 19.279524581
   351   1 0.000000 12.648372447 3.558732398 20.208658295
   352   1 0.000000 15.512154888 16.041670653 20.208658295
   353   1 0.000000 18.375937329 3.558732398 20.208658295
   354   1 0.000000 21.239719770 16.041670653 20.208658295
   355   1 0.000000 24.103502210 3.558732398 20.208658295
   356   1 0.000000 26.967284651 16.041670653 20.208658295
   357   1 0.000000 1.193242684 3.558732398 20.208658295
   358   1 0.000000 4.057025125 16.041670653 20.208658295
   359   1 0.000000 6.920807565 3.558732398 20.208658295
   360   1 0.000000 9.784590006 16.041670653 20.208658295
   361   1 0.000000 12.648372447 19.983651155 21.137792010
   362   1 0.000000 9.784590006 7.500712899 21.137792010
   363   1 0.000000 18.375937329 19.983651155 21.137792010
   364   1 0.000000 15.512154888 7.500712899 21.137792010
   365   1 0.000000 24.103502210 19.983651155 21.137792010
   366   1 0.000000 21.239719770 7.500712899 21.137792010
   367   1 0.000000 29.831067092 19.983651155 21.137792010
   368   1 0.000000 26.967284651 7.500712899 21.137792010
   369   1 0.000000 6.920807565 19.983651155 21.137792010
   370   1 0.000000 4.057025125 7.500712899 21.137792010
   371   1 0.000000 12.648372447 23.925631657 22.066925725
   372   1 0.000000 9.784590006 11.442693401 22.066925725
   373   1 0.000000 18.375937329 23.925631657 22.066925725
   374   1 0.000000 15.512154888 11.442693401 22.066925725
   375   1 0.000000 24.103502210 23.925631657 22.066925725
   376   1 0.000000 21.239719770 11.442693401 22.066925725
   377   1 0.000000 29.831067092 23.925631657 22.066925725
   378   1 0.000000 26.967284651 11.442693401 22.066925725
   379   1 0.000000 6.920807565 23.925631657 22.066925725
   380   1 0.000000 4.057025125 11.442693401 22.066925725
   381   1 0.000000 6.920807565 2.901735647 22.996059440
   382   1 0.000000 9.784590006 15.384673903 22.996059440
   383   1 0.000000 12.648372447 2.901735647 22.996059440
   384   1 0.000000 15.512154888 15.384673903 22.996059440
   385   1 0.000000 18.375937329 2.901735647 22.996059440
   386   1 0.000000 21.239719770 15.384673903 22.996059440
   387   1 0.000000 24.103502210 2.901735647 22.996059440
   388   1 0.000000 26.967284651 15.384673903 22.996059440
   389   1 0.000000 1.193242684 2.901735647 22.996059440
   390   1 0.000000 4.057025125 15.384673903 22.996059440
   391   1 0.000000 14.080263668 21.626143031 22.996059440
   392   1 0.000000 11.216481227 9.143204775 22.996059440
   393   1 0.000000 19.807828549 21.626143031 22.996059440
   394   1 0.000000 16.944046108 9.143204775 22.996059440
   395   1 0.000000 25.535393431 21.626143031 22.996059440
   396   1 0.000000 22.671610990 9.143204775 22.996059440
   397   1 0.000000 31.262958313 21.626143031 22.996059440
   398   1 0.000000 28.399175872 9.143204775 22.996059440
   399   1 0.000000 8.352698786 21.626143031 22.996059440
   400   1 0.000000 5.488916345 9.143204775 22.996059440
   401   1 0.000000 8.352698786 0.602247021 23.925193154
   402   1 0.000000 11.216481227 13.085185277 23.925193154
   403   1 0.000000 14.080263668 0.602247021 23.925193154
   404   1 0.000000 16.944046108 13.085185277 23.925193154
   405   1 0.000000 19.807828549 0.602247021 23.925193154
   406   1 0.000000 22.671610990 13.085185277 23.925193154
   407   1 0.000000 25.535393431 0.602247021 23.925193154
   408   1 0.000000 28.399175872 13.085185277 23.925193154
   409   1 0.000000 2.625133904 0.602247021 23.925193154
   410   1 0.000000 5.488916345 13.085185277 23.925193154
   411   1 0.000000 11.216481227 5.201224273 22.066925725
   412   1 0.000000 14.080263668 17.684162529 22.066925725
   413   1 0.000000 16.944046108 5.201224273 22.066925725
   414   1 0.000000 19.807828549 17.684162529 22.066925725
   415   1 0.000000 22.671610990 5.201224273 22.066925725
   416   1 0.000000 25.535393431 17.684162529 22.066925725
   417   1 0.000000 28.399175872 5.201224273 22.066925725
   418   1 0.000000 31.262958313 17.684162529 22.066925725
   419   1 0.000000 5.488916345 5.201224273 22.066925725
   420   1 0.000000 8.352698786 17.684162529 22.066925725
   421   1 0.000000 11.216481227 21.626143031 22.996059440
   422   1 0.000000 8.352698786 9.143204775 22.996059440
   423   1 0.000000 16.944046108 21.626143031 22.996059440
   424   1 0.000000 14.080263668 9.143204775 22.996059440
   425   1 0.000000 22.671610990 21.626143031 22.996059440
   426   1 0.000000 19.807828549 9.143204775 22.996059440
   427   1 0.000000 28.399175872 21.626143031 22.996059440
   428   1 0.000000 25.535393431 9.143204775 22.996059440
   429   1 0.000000 5.488916345 21.626143031 22.996059440
   430   1 0.000000 2.625133904 9.143204775 22.996059440
   431   1 0.000000 8.352698786 1.259243771 21.137792010
   432   1 0.000000 11.216481227 13.742182027 21.137792010
   433   1 0.000000 14.080263668 1.259243771 21.137792010
   434   1 0.000000 16.944046108 13.742182027 21.137792010
   435   1 0.000000 19.807828549 1.259243771 21.137792010
   436   1 0.000000 22.671610990 13.742182027 21.137792010
   437   1 0.000000 25.535393431 1.259243771 21.137792010
   438   1 0.000000 28.399175872 13.742182027 21.137792010
   439   1 0.000000 2.625133904 1.259243771 21.137792010
   440   1 0.000000 5.488916345 13.742182027 21.137792010
   441   1 0.000000 8.352698786 5.201224273 22.066925725
   442   1 0.000000 11.216481227 17.684162529 22.066925725
   443   1 0.000000 14.080263668 5.201224273 22.066925725
   444   1 0.000000 16.944046108 17.684162529 22.066925725
   445   1 0.000000 19.807828549 5.201224273 22.066925725
   446   1 0.000000 22.671610990 17.684162529 22.066925725
   447   1 0.000000 25.535393431 5.201224273 22.066925725
   448   1 0.000000 28.399175872 17.684162529 22.066925725
   449   1 0.000000 2.625133904 5.201224273 22.066925725
   450   1 0.000000 5.488916345 17.684162529 22.066925725
   451   1 0.000000 15.512154888 19.983651155 21.137792010
   452   1 0.000000 12.648372447 7.500712899 21.137792010
   453   1 0.000000 21.239719770 19.983651155 21.137792010
   454   1 0.000000 18.375937329 7.500712899 21.137792010
   455   1 0.000000 26.967284651 19.983651155 21.137792010
   456   1 0.000000 24.103502210 7.500712899 21.137792010
   457   1 0.000000 32.694849533 19.983651155 21.137792010
   458   1 0.000000 29.831067092 7.500712899 21.137792010
   459   1 0.000000 9.784590006 19.983651155 21.137792010
   460   1 0.000000 6.920807565 7.500712899 21.137792010
   461   1 0.000000 15.512154888 23.925631657 22.066925725
   462   1 0.000000 12.648372447 11.442693401 22.066925725
   463   1 0.000000 21.239719770 23.925631657 22.066925725
   464   1 0.000000 18.375937329 11.442693401 22.066925725
   465   1 0.000000 26.967284651 23.925631657 22.066925725
   466   1 0.000000 24.103502210 11.442693401 22.066925725
   467   1 0.000000 32.694849533 23.925631657 22.066925725
   468   1 0.000000 29.831067092 11.442693401 22.066925725
   469   1 0.000000 9.784590006 23.925631657 22.066925725
   470   1 0.000000 6.920807565 11.442693401 22.066925725
   471   1 0.000000 9.784590006 2.901735647 22.996059440
   472   1 0.000000 12.648372447 15.384673903 22.996059440
   473   1 0.000000 15.512154888 2.901735647 22.996059440
   474   1 0.000000 18.375937329 15.384673903 22.996059440
   475   1 0.000000 21.239719770 2.901735647 22.996059440
   476   1 0.000000 24.103502210 15.384673903 22.996059440
   477   1 0.000000 26.967284651 2.901735647 22.996059440
   478   1 0.000000 29.831067092 15.384673903 22.996059440
   479   1 0.000000 4.057025125 2.901735647 22.996059440
   480   1 0.000000 6.920807565 15.384673903 22.996059440
   481   1 0.000000 9.784590006 19.326654405 23.925193154
   482   1 0.000000 6.920807565 6.843716149 23.925193154
   483   1 0.000000 15.512154888 19.326654405 23.925193154
   484   1 0.000000 12.648372447 6.843716149 23.925193154
   485   1 0.000000 21.239719770 19.326654405 23.925193154
   486   1 0.000000 18.375937329 6.843716149 23.925193154
   487   1 0.000000 26.967284651 19.326654405 23.925193154
   488   1 0.000000 24.103502210 6.843716149 23.925193154
   489   1 0.000000 32.694849533 19.326654405 23.925193154
   490   1 0.000000 29.831067092 6.843716149 23.925193154
   491   1 0.000000 9.784590006 23.268634907 24.854326869
   492   1 0.000000 6.920807565 10.785696651 24.854326869
   493   1 0.000000 15.512154888 23.268634907 24.854326869
   494   1 0.000000 12.648372447 10.785696651 24.854326869
   495   1 0.000000 21.239719770 23.268634907 24.854326869
   496   1 0.000000 18.375937329 10.785696651 24.854326869
   497   1 0.000000 26.967284651 23.268634907 24.854326869
   498   1 0.000000 24.103502210 10.785696651 24.854326869
   499   1 0.000000 32.694849533 23.268634907 24.854326869
   500   1 0.000000 29.831067092 10.785696651 24.854326869
   501   1 0.000000 4.057025125 2.244738897 25.783460584
   502   1 0.000000 6.920807565 14.727677153 25.783460584
   503   1 0.000000 9.784590006 2.244738897 25.783460584
   504   1 0.000000 12.648372447 14.727677153 25.783460584
   505   1 0.000000 15.512154888 2.244738897 25.783460584
   506   1 0.000000 18.375937329 14.727677153 25.783460584
   507   1 0.000000 21.239719770 2.244738897 25.783460584
   508   1 0.000000 24.103502210 14.727677153 25.783460584
   509   1 0.000000 26.967284651 2.244738897 25.783460584
   510   1 0.000000 29.831067092 14.727677153 25.783460584
   511   1 0.000000 11.216481227 20.969146281 25.783460584