LAMMPS data file via write_data, version 13 Jan 2016, timestep = 489

960 atoms
1 atom types

1.7846457261298371e-01 2.8459359835386994e+01 xlo xhi
1.6239920596892340e-01 2.4803477305031080e+01 ylo yhi
-4.5300981502250634e-02 4.7431120432502198e+01 zlo zhi
5.6530510149716990e+00 0.0000000000000000e+00 0.0000000000000000e+00 xy xz yz

Masses

1 26.982

Atoms # charge

1 1 0.0000000000000000e+00 2.1147252389054014e+01 2.2019685740729493e+01 1.2937104206606486e+01 0 0 0
2 1 0.0000000000000000e+00 1.8320726881568167e+01 9.6991466911983757e+00 1.2937104206606483e+01 0 0 0
3 1 0.0000000000000000e+00 2.6803431441608819e+01 2.2019685740729447e+01 1.2937104206606476e+01 0 0 0
4 1 0.0000000000000000e+00 2.3976905934122957e+01 9.6991466911984130e+00 1.2937104206606492e+01 0 0 0
5 1 0.0000000000000000e+00 3.2459610494163613e+01 2.2019685740729425e+01 1.2937104206606460e+01 0 0 0
6 1 0.0000000000000000e+00 2.9633084986677762e+01 9.6991466911982940e+00 1.2937104206606451e+01 0 0 0
7 1 0.0000000000000000e+00 9.8348942839444362e+00 2.2019685740729596e+01 1.2937104206606497e+01 0 0 0
8 1 0.0000000000000000e+00 7.0083687764585827e+00 9.6991466911985427e+00 1.2937104206606508e+01 0 0 0
9 1 0.0000000000000000e+00 1.5491073336499230e+01 2.2019685740729283e+01 1.2937104206606440e+01 0 0 0
10 1 0.0000000000000000e+00 1.2664547829013376e+01 9.6991466911982016e+00 1.2937104206606444e+01 0 0 0
11 1 0.0000000000000000e+00 1.5473801462894562e+01 8.3291638072437502e-01 1.3674853913173838e+01 0 0 0
12 1 0.0000000000000000e+00 1.8300326970380418e+01 1.3153455430255503e+01 1.3674853913173848e+01 0 0 0
13 1 0.0000000000000000e+00 2.1129980515449379e+01 8.3291638072448082e-01 1.3674853913173873e+01 0 0 0
14 1 0.0000000000000000e+00 2.3956506022935198e+01 1.3153455430255399e+01 1.3674853913173827e+01 0 0 0
15 1 0.0000000000000000e+00 2.6786159568004184e+01 8.3291638072456387e-01 1.3674853913173884e+01 0 0 0
16 1 0.0000000000000000e+00 2.9612685075490067e+01 1.3153455430255777e+01 1.3674853913173918e+01 0 0 0
17 1 0.0000000000000000e+00 4.1614433577849308e+00 8.3291638072406826e-01 1.3674853913173749e+01 0 0 0
18 1 0.0000000000000000e+00 6.9879688652707594e+00 1.3153455430255033e+01 1.3674853913173715e+01 0 0 0
19 1 0.0000000000000000e+00 9.8176224103398759e+00 8.3291638072501295e-01 1.3674853913174006e+01 0 0 0
20 1 0.0000000000000000e+00 1.2644147917825725e+01 1.3153455430256084e+01 1.3674853913174006e+01 0 0 0
21 1 0.0000000000000000e+00 1.5459923591745513e+01 5.0717068735382842e+00 1.4643873635374915e+01 0 0 0
22 1 0.0000000000000000e+00 1.8286449099231362e+01 1.7392245923069343e+01 1.4643873635374877e+01 0 0 0
23 1 0.0000000000000000e+00 2.1116102644300316e+01 5.0717068735382593e+00 1.4643873635374868e+01 0 0 0
24 1 0.0000000000000000e+00 2.3942628151786145e+01 1.7392245923069392e+01 1.4643873635374925e+01 0 0 0
25 1 0.0000000000000000e+00 2.6772281696855110e+01 5.0717068735381980e+00 1.4643873635374797e+01 0 0 0
26 1 0.0000000000000000e+00 2.9598807204340986e+01 1.7392245923069225e+01 1.4643873635374737e+01 0 0 0
27 1 0.0000000000000000e+00 4.1475654866358873e+00 5.0717068735384307e+00 1.4643873635375021e+01 0 0 0
28 1 0.0000000000000000e+00 6.9740909941217248e+00 1.7392245923069549e+01 1.4643873635375048e+01 0 0 0
29 1 0.0000000000000000e+00 9.8037445391907561e+00 5.0717068735380799e+00 1.4643873635374677e+01 0 0 0
30 1 0.0000000000000000e+00 1.2630270046676612e+01 1.7392245923069162e+01 1.4643873635374675e+01 0 0 0
31 1 0.0000000000000000e+00 2.2582809260330102e+01 2.3464430172010836e+01 1.4718614688154801e+01 0 0 0
32 1 0.0000000000000000e+00 1.9756283752844237e+01 1.1143891122479753e+01 1.4718614688154796e+01 0 0 0
33 1 0.0000000000000000e+00 2.8238988312884889e+01 2.3464430172010843e+01 1.4718614688154776e+01 0 0 0
34 1 0.0000000000000000e+00 2.5412462805399073e+01 1.1143891122479754e+01 1.4718614688154796e+01 0 0 0
35 1 0.0000000000000000e+00 5.6142721026656472e+00 2.3464430172010832e+01 1.4718614688154776e+01 0 0 0
36 1 0.0000000000000000e+00 2.7877465951797658e+00 1.1143891122479758e+01 1.4718614688154757e+01 0 0 0
37 1 0.0000000000000000e+00 1.1270451155220606e+01 2.3464430172010832e+01 1.4718614688154810e+01 0 0 0
38 1 0.0000000000000000e+00 8.4439256477347655e+00 1.1143891122479740e+01 1.4718614688154828e+01 0 0 0
39 1 0.0000000000000000e+00 1.6926630207775215e+01 2.3464430172010907e+01 1.4718614688154705e+01 0 0 0
40 1 0.0000000000000000e+00 1.4100104700289368e+01 1.1143891122479824e+01 1.4718614688154700e+01 0 0 0
41 1 0.0000000000000000e+00 1.6935067213185302e+01 2.6647155240066271e+00 1.5565336414589888e+01 0 0 0
42 1 0.0000000000000000e+00 1.9761592720671157e+01 1.4985254573537706e+01 1.5565336414589874e+01 0 0 0
43 1 0.0000000000000000e+00 2.2591246265740114e+01 2.6647155240066329e+00 1.5565336414589899e+01 0 0 0
44 1 0.0000000000000000e+00 2.5417771773225947e+01 1.4985254573537706e+01 1.5565336414589890e+01 0 0 0
45 1 0.0000000000000000e+00 2.8247425318294940e+01 2.6647155240066147e+00 1.5565336414589865e+01 0 0 0
46 1 0.0000000000000000e+00 3.1073950825780798e+01 1.4985254573537700e+01 1.5565336414589856e+01 0 0 0
47 1 0.0000000000000000e+00 5.6227091080756830e+00 2.6647155240066356e+00 1.5565336414589895e+01 0 0 0
48 1 0.0000000000000000e+00 8.4492346155615223e+00 1.4985254573537702e+01 1.5565336414589888e+01 0 0 0
49 1 0.0000000000000000e+00 1.1278888160630547e+01 2.6647155240066747e+00 1.5565336414589900e+01 0 0 0
50 1 0.0000000000000000e+00 1.4105413668116398e+01 1.4985254573537752e+01 1.5565336414589900e+01 0 0 0
51 1 0.0000000000000000e+00 1.9730910303035536e+01 7.3104049019918058e+00 1.3698162203024058e+01 0 0 0
52 1 0.0000000000000000e+00 2.2557435810521387e+01 1.9630943951522895e+01 1.3698162203024051e+01 0 0 0
53 1 0.0000000000000000e+00 2.5387089355590341e+01 7.3104049019918103e+00 1.3698162203024053e+01 0 0 0
54 1 0.0000000000000000e+00 2.8213614863076202e+01 1.9630943951522880e+01 1.3698162203024054e+01 0 0 0
55 1 0.0000000000000000e+00 2.7623731453711362e+00 7.3104049019918014e+00 1.3698162203024030e+01 0 0 0
56 1 0.0000000000000000e+00 5.5888986528569804e+00 1.9630943951522898e+01 1.3698162203024015e+01 0 0 0
57 1 0.0000000000000000e+00 8.4185521979259637e+00 7.3104049019918360e+00 1.3698162203024063e+01 0 0 0
58 1 0.0000000000000000e+00 1.1245077705411816e+01 1.9630943951522916e+01 1.3698162203024065e+01 0 0 0
59 1 0.0000000000000000e+00 1.4074731250480763e+01 7.3104049019917827e+00 1.3698162203024042e+01 0 0 0
60 1 0.0000000000000000e+00 1.6901256757966618e+01 1.9630943951522870e+01 1.3698162203024035e+01 0 0 0
61 1 0.0000000000000000e+00 1.9711000377308775e+01 2.3434461918094641e+01 1.4735040730238625e+01 0 0 0
62 1 0.0000000000000000e+00 1.6884474869822931e+01 1.1113922868563565e+01 1.4735040730238612e+01 0 0 0
63 1 0.0000000000000000e+00 2.5367179429863569e+01 2.3434461918094712e+01 1.4735040730238541e+01 0 0 0
64 1 0.0000000000000000e+00 2.2540653922377697e+01 1.1113922868563595e+01 1.4735040730238580e+01 0 0 0
65 1 0.0000000000000000e+00 3.1023358482418367e+01 2.3434461918094716e+01 1.4735040730238525e+01 0 0 0
66 1 0.0000000000000000e+00 2.8196832974932537e+01 1.1113922868563677e+01 1.4735040730238472e+01 0 0 0
67 1 0.0000000000000000e+00 8.3986422721991296e+00 2.3434461918094605e+01 1.4735040730238651e+01 0 0 0
68 1 0.0000000000000000e+00 5.5721167647132690e+00 1.1113922868563487e+01 1.4735040730238691e+01 0 0 0
69 1 0.0000000000000000e+00 1.4054821324754045e+01 2.3434461918094861e+01 1.4735040730238380e+01 0 0 0
70 1 0.0000000000000000e+00 1.1228295817268188e+01 1.1113922868563790e+01 1.4735040730238369e+01 0 0 0
71 1 0.0000000000000000e+00 1.6547761321497472e+01 3.2756147917083789e+00 1.3056488272727705e+01 0 0 0
72 1 0.0000000000000000e+00 1.9374286828983479e+01 1.5596153841239468e+01 1.3056488272727675e+01 0 0 0
73 1 0.0000000000000000e+00 2.2203940374052568e+01 3.2756147917084193e+00 1.3056488272727680e+01 0 0 0
74 1 0.0000000000000000e+00 2.5030465881538003e+01 1.5596153841239435e+01 1.3056488272727728e+01 0 0 0
75 1 0.0000000000000000e+00 2.7860119426607667e+01 3.2756147917084206e+00 1.3056488272727629e+01 0 0 0
76 1 0.0000000000000000e+00 3.0686644934093884e+01 1.5596153841239545e+01 1.3056488272727583e+01 0 0 0
77 1 0.0000000000000000e+00 5.2354032163870663e+00 3.2756147917082892e+00 1.3056488272727812e+01 0 0 0
78 1 0.0000000000000000e+00 8.0619287238726365e+00 1.5596153841239325e+01 1.3056488272727838e+01 0 0 0
79 1 0.0000000000000000e+00 1.0891582268944283e+01 3.2756147917086080e+00 1.3056488272727528e+01 0 0 0
80 1 0.0000000000000000e+00 1.3718107776430116e+01 1.5596153841239683e+01 1.3056488272727522e+01 0 0 0
81 1 0.0000000000000000e+00 1.6916847019997522e+01 7.3057613578560030e+00 1.3685331349009292e+01 0 0 0
82 1 0.0000000000000000e+00 1.9743372527483370e+01 1.9626300407387095e+01 1.3685331349009287e+01 0 0 0
83 1 0.0000000000000000e+00 2.2573026072552334e+01 7.3057613578560003e+00 1.3685331349009287e+01 0 0 0
84 1 0.0000000000000000e+00 2.5399551580038182e+01 1.9626300407387067e+01 1.3685331349009287e+01 0 0 0
85 1 0.0000000000000000e+00 2.8229205125107104e+01 7.3057613578559728e+00 1.3685331349009280e+01 0 0 0
86 1 0.0000000000000000e+00 3.1055730632592969e+01 1.9626300407387070e+01 1.3685331349009276e+01 0 0 0
87 1 0.0000000000000000e+00 5.6044889148879582e+00 7.3057613578560456e+00 1.3685331349009280e+01 0 0 0
88 1 0.0000000000000000e+00 8.4310144223738099e+00 1.9626300407387127e+01 1.3685331349009275e+01 0 0 0
89 1 0.0000000000000000e+00 1.1260667967442727e+01 7.3057613578559444e+00 1.3685331349009282e+01 0 0 0
90 1 0.0000000000000000e+00 1.4087193474928585e+01 1.9626300407387028e+01 1.3685331349009276e+01 0 0 0
91 1 0.0000000000000000e+00 2.3974488630874113e+01 2.1972599191949595e+01 1.2928857421439726e+01 0 0 0
92 1 0.0000000000000000e+00 2.1147963123388259e+01 9.6520601424185202e+00 1.2928857421439725e+01 0 0 0
93 1 0.0000000000000000e+00 2.9630667683428900e+01 2.1972599191949602e+01 1.2928857421439711e+01 0 0 0
94 1 0.0000000000000000e+00 2.6804142175943056e+01 9.6520601424185042e+00 1.2928857421439711e+01 0 0 0
95 1 0.0000000000000000e+00 7.0059514732097021e+00 2.1972599191949634e+01 1.2928857421439721e+01 0 0 0
96 1 0.0000000000000000e+00 4.1794259657238486e+00 9.6520601424185610e+00 1.2928857421439721e+01 0 0 0
97 1 0.0000000000000000e+00 1.2662130525764535e+01 2.1972599191949566e+01 1.2928857421439700e+01 0 0 0
98 1 0.0000000000000000e+00 9.8356050182786809e+00 9.6520601424184775e+00 1.2928857421439700e+01 0 0 0
99 1 0.0000000000000000e+00 1.8318309578319319e+01 2.1972599191949648e+01 1.2928857421439725e+01 0 0 0
100 1 0.0000000000000000e+00 1.5491784070833466e+01 9.6520601424185539e+00 1.2928857421439730e+01 0 0 0
101 1 0.0000000000000000e+00 1.8308001254462635e+01 1.0153955334825135e+00 1.3683760595948449e+01 0 0 0
102 1 0.0000000000000000e+00 2.1134526761948489e+01 1.3335934583013527e+01 1.3683760595948424e+01 0 0 0
103 1 0.0000000000000000e+00 2.3964180307017465e+01 1.0153955334824782e+00 1.3683760595948449e+01 0 0 0
104 1 0.0000000000000000e+00 2.6790705814503269e+01 1.3335934583013643e+01 1.3683760595948460e+01 0 0 0
105 1 0.0000000000000000e+00 1.3394640967982645e+00 1.0153955334823237e+00 1.3683760595948389e+01 0 0 0
106 1 0.0000000000000000e+00 4.1659896042841424e+00 1.3335934583013323e+01 1.3683760595948375e+01 0 0 0
107 1 0.0000000000000000e+00 6.9956431493529960e+00 1.0153955334827447e+00 1.3683760595948488e+01 0 0 0
108 1 0.0000000000000000e+00 9.8221686568388140e+00 1.3335934583013856e+01 1.3683760595948483e+01 0 0 0
109 1 0.0000000000000000e+00 1.2651822201907997e+01 1.0153955334822711e+00 1.3683760595948439e+01 0 0 0
110 1 0.0000000000000000e+00 1.5478347709393848e+01 1.3335934583013358e+01 1.3683760595948440e+01 0 0 0
111 1 0.0000000000000000e+00 1.8318462282104161e+01 4.9529401065744532e+00 1.4510604298713234e+01 0 0 0
112 1 0.0000000000000000e+00 2.1144987789590019e+01 1.7273479156105569e+01 1.4510604298713256e+01 0 0 0
113 1 0.0000000000000000e+00 2.3974641334658997e+01 4.9529401065744922e+00 1.4510604298713286e+01 0 0 0
114 1 0.0000000000000000e+00 2.6801166842144813e+01 1.7273479156105498e+01 1.4510604298713199e+01 0 0 0
115 1 0.0000000000000000e+00 1.3499251244398029e+00 4.9529401065745544e+00 1.4510604298713327e+01 0 0 0
116 1 0.0000000000000000e+00 4.1764506319256860e+00 1.7273479156105701e+01 1.4510604298713384e+01 0 0 0
117 1 0.0000000000000000e+00 7.0061041769945085e+00 4.9529401065743270e+00 1.4510604298713073e+01 0 0 0
118 1 0.0000000000000000e+00 9.8326296844803256e+00 1.7273479156105367e+01 1.4510604298713012e+01 0 0 0
119 1 0.0000000000000000e+00 1.2662283229549537e+01 4.9529401065747001e+00 1.4510604298713536e+01 0 0 0
120 1 0.0000000000000000e+00 1.5488808737035390e+01 1.7273479156105775e+01 1.4510604298713531e+01 0 0 0
121 1 0.0000000000000000e+00 1.8321915221388405e+01 2.1163520871470755e+01 1.5554248459744326e+01 0 0 0
122 1 0.0000000000000000e+00 1.5495389713902558e+01 8.8429818219396754e+00 1.5554248459744327e+01 0 0 0
123 1 0.0000000000000000e+00 2.3978094273943238e+01 2.1163520871470727e+01 1.5554248459744336e+01 0 0 0
124 1 0.0000000000000000e+00 2.1151568766457373e+01 8.8429818219396381e+00 1.5554248459744347e+01 0 0 0
125 1 0.0000000000000000e+00 2.9634273326498025e+01 2.1163520871470745e+01 1.5554248459744327e+01 0 0 0
126 1 0.0000000000000000e+00 2.6807747819012189e+01 8.8429818219396683e+00 1.5554248459744326e+01 0 0 0
127 1 0.0000000000000000e+00 7.0095571162788097e+00 2.1163520871470698e+01 1.5554248459744336e+01 0 0 0
128 1 0.0000000000000000e+00 4.1830316087929447e+00 8.8429818219396115e+00 1.5554248459744343e+01 0 0 0
129 1 0.0000000000000000e+00 1.2665736168833675e+01 2.1163520871470780e+01 1.5554248459744315e+01 0 0 0
130 1 0.0000000000000000e+00 9.8392106613478330e+00 8.8429818219396967e+00 1.5554248459744320e+01 0 0 0
131 1 0.0000000000000000e+00 1.2683049951543776e+01 4.7982348928074492e-01 1.6447056971754300e+01 0 0 0
132 1 0.0000000000000000e+00 1.5509575459029630e+01 1.2800362538811820e+01 1.6447056971754293e+01 0 0 0
133 1 0.0000000000000000e+00 1.8339229004098577e+01 4.7982348928073904e-01 1.6447056971754314e+01 0 0 0
134 1 0.0000000000000000e+00 2.1165754511584431e+01 1.2800362538811820e+01 1.6447056971754304e+01 0 0 0
135 1 0.0000000000000000e+00 2.3995408056653371e+01 4.7982348928072904e-01 1.6447056971754307e+01 0 0 0
136 1 0.0000000000000000e+00 2.6821933564139229e+01 1.2800362538811807e+01 1.6447056971754307e+01 0 0 0
137 1 0.0000000000000000e+00 1.3706918464341813e+00 4.7982348928074448e-01 1.6447056971754289e+01 0 0 0
138 1 0.0000000000000000e+00 4.1972173539200313e+00 1.2800362538811820e+01 1.6447056971754275e+01 0 0 0
139 1 0.0000000000000000e+00 7.0268708989889888e+00 4.7982348928073881e-01 1.6447056971754311e+01 0 0 0
140 1 0.0000000000000000e+00 9.8533964064748361e+00 1.2800362538811818e+01 1.6447056971754314e+01 0 0 0
141 1 0.0000000000000000e+00 1.2683356021302734e+01 4.3320465620632467e+00 1.7269436213588680e+01 0 0 0
142 1 0.0000000000000000e+00 1.5509881528788576e+01 1.6652585611594329e+01 1.7269436213588676e+01 0 0 0
143 1 0.0000000000000000e+00 1.8339535073857498e+01 4.3320465620632289e+00 1.7269436213588602e+01 0 0 0
144 1 0.0000000000000000e+00 2.1166060581343356e+01 1.6652585611594301e+01 1.7269436213588584e+01 0 0 0
145 1 0.0000000000000000e+00 2.3995714126412309e+01 4.3320465620632351e+00 1.7269436213588619e+01 0 0 0
146 1 0.0000000000000000e+00 2.6822239633898139e+01 1.6652585611594318e+01 1.7269436213588602e+01 0 0 0
147 1 0.0000000000000000e+00 1.3709979161931223e+00 4.3320465620632058e+00 1.7269436213588577e+01 0 0 0
148 1 0.0000000000000000e+00 4.1975234236789829e+00 1.6652585611594283e+01 1.7269436213588577e+01 0 0 0
149 1 0.0000000000000000e+00 7.0271769687478702e+00 4.3320465620632636e+00 1.7269436213588595e+01 0 0 0
150 1 0.0000000000000000e+00 9.8537024762337193e+00 1.6652585611594340e+01 1.7269436213588566e+01 0 0 0
151 1 0.0000000000000000e+00 1.9738566984438307e+01 2.2816851997080590e+01 1.7380174704314530e+01 0 0 0
152 1 0.0000000000000000e+00 1.6912041476952457e+01 1.0496312947549512e+01 1.7380174704314523e+01 0 0 0
153 1 0.0000000000000000e+00 2.5394746036993102e+01 2.2816851997080590e+01 1.7380174704314491e+01 0 0 0
154 1 0.0000000000000000e+00 2.2568220529507254e+01 1.0496312947549500e+01 1.7380174704314513e+01 0 0 0
155 1 0.0000000000000000e+00 3.1050925089547899e+01 2.2816851997080590e+01 1.7380174704314488e+01 0 0 0
156 1 0.0000000000000000e+00 2.8224399582062045e+01 1.0496312947549516e+01 1.7380174704314463e+01 0 0 0
157 1 0.0000000000000000e+00 8.4262088793287049e+00 2.2816851997080569e+01 1.7380174704314530e+01 0 0 0
158 1 0.0000000000000000e+00 5.5996833718428540e+00 1.0496312947549484e+01 1.7380174704314548e+01 0 0 0
159 1 0.0000000000000000e+00 1.4082387931883506e+01 2.2816851997080626e+01 1.7380174704314420e+01 0 0 0
160 1 0.0000000000000000e+00 1.1255862424397652e+01 1.0496312947549546e+01 1.7380174704314417e+01 0 0 0
161 1 0.0000000000000000e+00 1.4088457023940707e+01 2.0967204842816871e+00 1.8232361302598765e+01 0 0 0
162 1 0.0000000000000000e+00 1.6914982531426556e+01 1.4417259533812764e+01 1.8232361302598765e+01 0 0 0
163 1 0.0000000000000000e+00 1.9744636076495503e+01 2.0967204842816844e+00 1.8232361302598765e+01 0 0 0
164 1 0.0000000000000000e+00 2.2571161583981354e+01 1.4417259533812764e+01 1.8232361302598747e+01 0 0 0
165 1 0.0000000000000000e+00 2.5400815129050304e+01 2.0967204842816818e+00 1.8232361302598768e+01 0 0 0
166 1 0.0000000000000000e+00 2.8227340636536152e+01 1.4417259533812761e+01 1.8232361302598768e+01 0 0 0
167 1 0.0000000000000000e+00 2.7760989188311029e+00 2.0967204842816809e+00 1.8232361302598715e+01 0 0 0
168 1 0.0000000000000000e+00 5.6026244263169511e+00 1.4417259533812755e+01 1.8232361302598701e+01 0 0 0
169 1 0.0000000000000000e+00 8.4322779713858917e+00 2.0967204842817067e+00 1.8232361302598793e+01 0 0 0
170 1 0.0000000000000000e+00 1.1258803478871744e+01 1.4417259533812789e+01 1.8232361302598783e+01 0 0 0
171 1 0.0000000000000000e+00 1.6926031426935161e+01 6.5967716601011874e+00 1.6388995914913632e+01 0 0 0
172 1 0.0000000000000000e+00 1.9752556934421005e+01 1.8917310709632265e+01 1.6388995914913622e+01 0 0 0
173 1 0.0000000000000000e+00 2.2582210479489962e+01 6.5967716601011732e+00 1.6388995914913629e+01 0 0 0
174 1 0.0000000000000000e+00 2.5408735986975824e+01 1.8917310709632250e+01 1.6388995914913622e+01 0 0 0
175 1 0.0000000000000000e+00 2.8238389532044739e+01 6.5967716601011732e+00 1.6388995914913615e+01 0 0 0
176 1 0.0000000000000000e+00 3.1064915039530568e+01 1.8917310709632250e+01 1.6388995914913604e+01 0 0 0
177 1 0.0000000000000000e+00 5.6136733218256074e+00 6.5967716601011857e+00 1.6388995914913625e+01 0 0 0
178 1 0.0000000000000000e+00 8.4401988293114680e+00 1.8917310709632261e+01 1.6388995914913618e+01 0 0 0
179 1 0.0000000000000000e+00 1.1269852374380324e+01 6.5967716601011874e+00 1.6388995914913611e+01 0 0 0
180 1 0.0000000000000000e+00 1.4096377881866173e+01 1.8917310709632265e+01 1.6388995914913604e+01 0 0 0
181 1 0.0000000000000000e+00 1.6913659585523636e+01 2.2824422866758589e+01 1.7368583921635530e+01 0 0 0
182 1 0.0000000000000000e+00 1.4087134078037781e+01 1.0503883817227511e+01 1.7368583921635530e+01 0 0 0
183 1 0.0000000000000000e+00 2.2569838638078423e+01 2.2824422866758567e+01 1.7368583921635572e+01 0 0 0
184 1 0.0000000000000000e+00 1.9743313130592579e+01 1.0503883817227491e+01 1.7368583921635572e+01 0 0 0
185 1 0.0000000000000000e+00 2.8226017690633224e+01 2.2824422866758560e+01 1.7368583921635555e+01 0 0 0
186 1 0.0000000000000000e+00 2.5399492183147373e+01 1.0503883817227484e+01 1.7368583921635569e+01 0 0 0
187 1 0.0000000000000000e+00 5.6013014804140271e+00 2.2824422866758564e+01 1.7368583921635558e+01 0 0 0
188 1 0.0000000000000000e+00 2.7747759729281793e+00 1.0503883817227489e+01 1.7368583921635551e+01 0 0 0
189 1 0.0000000000000000e+00 1.1257480532968817e+01 2.2824422866758571e+01 1.7368583921635569e+01 0 0 0
190 1 0.0000000000000000e+00 8.4309550254829695e+00 1.0503883817227488e+01 1.7368583921635580e+01 0 0 0
191 1 0.0000000000000000e+00 1.4155071923160854e+01 2.7103302018371433e+00 1.5329175586824014e+01 0 0 0
192 1 0.0000000000000000e+00 1.6981597430646691e+01 1.5030869251368225e+01 1.5329175586824034e+01 0 0 0
193 1 0.0000000000000000e+00 1.9811250975715666e+01 2.7103302018371411e+00 1.5329175586824102e+01 0 0 0
194 1 0.0000000000000000e+00 2.2637776483201545e+01 1.5030869251368211e+01 1.5329175586824013e+01 0 0 0
195 1 0.0000000000000000e+00 2.5467430028270449e+01 2.7103302018371354e+00 1.5329175586824128e+01 0 0 0
196 1 0.0000000000000000e+00 2.8293955535756297e+01 1.5030869251368221e+01 1.5329175586824205e+01 0 0 0
197 1 0.0000000000000000e+00 2.8427138180513372e+00 2.7103302018371220e+00 1.5329175586823860e+01 0 0 0
198 1 0.0000000000000000e+00 5.6692393255371929e+00 1.5030869251368191e+01 1.5329175586823791e+01 0 0 0
199 1 0.0000000000000000e+00 8.4988928706060154e+00 2.7103302018371895e+00 1.5329175586824363e+01 0 0 0
200 1 0.0000000000000000e+00 1.1325418378091875e+01 1.5030869251368266e+01 1.5329175586824357e+01 0 0 0
201 1 0.0000000000000000e+00 1.4063818839040593e+01 6.6216975217187759e+00 1.6423529007985220e+01 0 0 0
202 1 0.0000000000000000e+00 1.6890344346526444e+01 1.8942236571249843e+01 1.6423529007985206e+01 0 0 0
203 1 0.0000000000000000e+00 1.9719997891595359e+01 6.6216975217186782e+00 1.6423529007985135e+01 0 0 0
204 1 0.0000000000000000e+00 2.2546523399081206e+01 1.8942236571249783e+01 1.6423529007985152e+01 0 0 0
205 1 0.0000000000000000e+00 2.5376176944150174e+01 6.6216975217186871e+00 1.6423529007985124e+01 0 0 0
206 1 0.0000000000000000e+00 2.8202702451636018e+01 1.8942236571249737e+01 1.6423529007985081e+01 0 0 0
207 1 0.0000000000000000e+00 2.7514607339309345e+00 6.6216975217187342e+00 1.6423529007985195e+01 0 0 0
208 1 0.0000000000000000e+00 5.5779862414167924e+00 1.8942236571249843e+01 1.6423529007985220e+01 0 0 0
209 1 0.0000000000000000e+00 8.4076397864857864e+00 6.6216975217186311e+00 1.6423529007985024e+01 0 0 0
210 1 0.0000000000000000e+00 1.1234165293971628e+01 1.8942236571249712e+01 1.6423529007985003e+01 0 0 0
211 1 0.0000000000000000e+00 2.1151339435029616e+01 2.1183834792704705e+01 1.5548526056904988e+01 0 0 0
212 1 0.0000000000000000e+00 1.8324813927543765e+01 8.8632957431736212e+00 1.5548526056904990e+01 0 0 0
213 1 0.0000000000000000e+00 2.6807518487584414e+01 2.1183834792704719e+01 1.5548526056904974e+01 0 0 0
214 1 0.0000000000000000e+00 2.3980992980098566e+01 8.8632957431736354e+00 1.5548526056904979e+01 0 0 0
215 1 0.0000000000000000e+00 3.2463697540139194e+01 2.1183834792704712e+01 1.5548526056904969e+01 0 0 0
216 1 0.0000000000000000e+00 2.9637172032653343e+01 8.8632957431736390e+00 1.5548526056904963e+01 0 0 0
217 1 0.0000000000000000e+00 9.8389813299200508e+00 2.1183834792704719e+01 1.5548526056904974e+01 0 0 0
218 1 0.0000000000000000e+00 7.0124558224342026e+00 8.8632957431736319e+00 1.5548526056904988e+01 0 0 0
219 1 0.0000000000000000e+00 1.5495160382474804e+01 2.1183834792704751e+01 1.5548526056904947e+01 0 0 0
220 1 0.0000000000000000e+00 1.2668634874988951e+01 8.8632957431736745e+00 1.5548526056904945e+01 0 0 0
221 1 0.0000000000000000e+00 1.5498755366115281e+01 4.6591152374257727e-01 1.6446961073319294e+01 0 0 0
222 1 0.0000000000000000e+00 1.8325280873601127e+01 1.2786450573273653e+01 1.6446961073319297e+01 0 0 0
223 1 0.0000000000000000e+00 2.1154934418670081e+01 4.6591152374256828e-01 1.6446961073319297e+01 0 0 0
224 1 0.0000000000000000e+00 2.3981459926155924e+01 1.2786450573273640e+01 1.6446961073319279e+01 0 0 0
225 1 0.0000000000000000e+00 2.6811113471224878e+01 4.6591152374256861e-01 1.6446961073319297e+01 0 0 0
226 1 0.0000000000000000e+00 2.9637638978710729e+01 1.2786450573273649e+01 1.6446961073319301e+01 0 0 0
227 1 0.0000000000000000e+00 4.1863972610056752e+00 4.6591152374256450e-01 1.6446961073319255e+01 0 0 0
228 1 0.0000000000000000e+00 7.0129227684915270e+00 1.2786450573273640e+01 1.6446961073319244e+01 0 0 0
229 1 0.0000000000000000e+00 9.8425763135604942e+00 4.6591152374259448e-01 1.6446961073319326e+01 0 0 0
230 1 0.0000000000000000e+00 1.2669101821046338e+01 1.2786450573273671e+01 1.6446961073319319e+01 0 0 0
231 1 0.0000000000000000e+00 1.5499155197541350e+01 4.3381316253710152e+00 1.7309665852430072e+01 0 0 0
232 1 0.0000000000000000e+00 1.8325680705027210e+01 1.6658670674902091e+01 1.7309665852430054e+01 0 0 0
233 1 0.0000000000000000e+00 2.1155334250096161e+01 4.3381316253710098e+00 1.7309665852430062e+01 0 0 0
234 1 0.0000000000000000e+00 2.3981859757582004e+01 1.6658670674902083e+01 1.7309665852430062e+01 0 0 0
235 1 0.0000000000000000e+00 2.6811513302650962e+01 4.3381316253710036e+00 1.7309665852430033e+01 0 0 0
236 1 0.0000000000000000e+00 2.9638038810136820e+01 1.6658670674902087e+01 1.7309665852430015e+01 0 0 0
237 1 0.0000000000000000e+00 4.1867970924317346e+00 4.3381316253710125e+00 1.7309665852430079e+01 0 0 0
238 1 0.0000000000000000e+00 7.0133225999175837e+00 1.6658670674902087e+01 1.7309665852430076e+01 0 0 0
239 1 0.0000000000000000e+00 9.8429761449865794e+00 4.3381316253710436e+00 1.7309665852430030e+01 0 0 0
240 1 0.0000000000000000e+00 1.2669501652472428e+01 1.6658670674902122e+01 1.7309665852430022e+01 0 0 0
241 1 0.0000000000000000e+00 1.5494172573113360e+01 2.0541814742503423e+01 1.8299217865993281e+01 0 0 0
242 1 0.0000000000000000e+00 1.2667647065627506e+01 8.2212756929723465e+00 1.8299217865993288e+01 0 0 0
243 1 0.0000000000000000e+00 2.1150351625668176e+01 2.0541814742503401e+01 1.8299217865993320e+01 0 0 0
244 1 0.0000000000000000e+00 1.8323826118182332e+01 8.2212756929723163e+00 1.8299217865993320e+01 0 0 0
245 1 0.0000000000000000e+00 2.6806530678222980e+01 2.0541814742503387e+01 1.8299217865993292e+01 0 0 0
246 1 0.0000000000000000e+00 2.3980005170737122e+01 8.2212756929723056e+00 1.8299217865993302e+01 0 0 0
247 1 0.0000000000000000e+00 3.2462709730777760e+01 2.0541814742503409e+01 1.8299217865993313e+01 0 0 0
248 1 0.0000000000000000e+00 2.9636184223291913e+01 8.2212756929723323e+00 1.8299217865993310e+01 0 0 0
249 1 0.0000000000000000e+00 9.8379935205586015e+00 2.0541814742503384e+01 1.8299217865993285e+01 0 0 0
250 1 0.0000000000000000e+00 7.0114680130727463e+00 8.2212756929722985e+00 1.8299217865993292e+01 0 0 0
251 1 0.0000000000000000e+00 1.5497711488030770e+01 2.4447325952177287e+01 1.9231797521548618e+01 0 0 0
252 1 0.0000000000000000e+00 1.2671185980544919e+01 1.2126786902646211e+01 1.9231797521548607e+01 0 0 0
253 1 0.0000000000000000e+00 2.1153890540585572e+01 2.4447325952177287e+01 1.9231797521548636e+01 0 0 0
254 1 0.0000000000000000e+00 1.8327365033099731e+01 1.2126786902646209e+01 1.9231797521548632e+01 0 0 0
255 1 0.0000000000000000e+00 2.6810069593140373e+01 2.4447325952177280e+01 1.9231797521548621e+01 0 0 0
256 1 0.0000000000000000e+00 2.3983544085654515e+01 1.2126786902646204e+01 1.9231797521548621e+01 0 0 0
257 1 0.0000000000000000e+00 3.2466248645695174e+01 2.4447325952177280e+01 1.9231797521548618e+01 0 0 0
258 1 0.0000000000000000e+00 2.9639723138209330e+01 1.2126786902646199e+01 1.9231797521548614e+01 0 0 0
259 1 0.0000000000000000e+00 9.8415324354759726e+00 2.4447325952177287e+01 1.9231797521548607e+01 0 0 0
260 1 0.0000000000000000e+00 7.0150069279901226e+00 1.2126786902646209e+01 1.9231797521548607e+01 0 0 0
261 1 0.0000000000000000e+00 9.8441906987802685e+00 3.6839215379100874e+00 2.0155076100524340e+01 0 0 0
262 1 0.0000000000000000e+00 1.2670716206266111e+01 1.6004460587441162e+01 2.0155076100524333e+01 0 0 0
263 1 0.0000000000000000e+00 1.5500369751335066e+01 3.6839215379100798e+00 2.0155076100524369e+01 0 0 0
264 1 0.0000000000000000e+00 1.8326895258820912e+01 1.6004460587441159e+01 2.0155076100524358e+01 0 0 0
265 1 0.0000000000000000e+00 2.1156548803889862e+01 3.6839215379100660e+00 2.0155076100524358e+01 0 0 0
266 1 0.0000000000000000e+00 2.3983074311375713e+01 1.6004460587441148e+01 2.0155076100524354e+01 0 0 0
267 1 0.0000000000000000e+00 2.6812727856444674e+01 3.6839215379100687e+00 2.0155076100524344e+01 0 0 0
268 1 0.0000000000000000e+00 2.9639253363930518e+01 1.6004460587441148e+01 2.0155076100524330e+01 0 0 0
269 1 0.0000000000000000e+00 4.1880116462254575e+00 3.6839215379100709e+00 2.0155076100524358e+01 0 0 0
270 1 0.0000000000000000e+00 7.0145371537113101e+00 1.6004460587441148e+01 2.0155076100524354e+01 0 0 0
271 1 0.0000000000000000e+00 1.6913390230431204e+01 2.2162137446458168e+01 2.0172465321854524e+01 0 0 0
272 1 0.0000000000000000e+00 1.4086864722945350e+01 9.8415983969270897e+00 2.0172465321854524e+01 0 0 0
273 1 0.0000000000000000e+00 2.2569569282986009e+01 2.2162137446458150e+01 2.0172465321854542e+01 0 0 0
274 1 0.0000000000000000e+00 1.9743043775500155e+01 9.8415983969270773e+00 2.0172465321854549e+01 0 0 0
275 1 0.0000000000000000e+00 2.8225748335540803e+01 2.2162137446458150e+01 2.0172465321854528e+01 0 0 0
276 1 0.0000000000000000e+00 2.5399222828054956e+01 9.8415983969270737e+00 2.0172465321854538e+01 0 0 0
277 1 0.0000000000000000e+00 5.6010321253215993e+00 2.2162137446458150e+01 2.0172465321854531e+01 0 0 0
278 1 0.0000000000000000e+00 2.7745066178357489e+00 9.8415983969270719e+00 2.0172465321854528e+01 0 0 0
279 1 0.0000000000000000e+00 1.1257211177876407e+01 2.2162137446458157e+01 2.0172465321854528e+01 0 0 0
280 1 0.0000000000000000e+00 8.4306856703905506e+00 9.8415983969270773e+00 2.0172465321854531e+01 0 0 0
281 1 0.0000000000000000e+00 1.1259947803496914e+01 1.4147345044288906e+00 2.1113401261672806e+01 0 0 0
282 1 0.0000000000000000e+00 1.4086473310982763e+01 1.3735273553959971e+01 2.1113401261672802e+01 0 0 0
283 1 0.0000000000000000e+00 1.6916126856051722e+01 1.4147345044288853e+00 2.1113401261672813e+01 0 0 0
284 1 0.0000000000000000e+00 1.9742652363537573e+01 1.3735273553959964e+01 2.1113401261672809e+01 0 0 0
285 1 0.0000000000000000e+00 2.2572305908606523e+01 1.4147345044288819e+00 2.1113401261672809e+01 0 0 0