LAMMPS data file via write_data, version 13 Jan 2016, timestep = 1021

720 atoms
1 atom types

1.6093769863802609e-01 2.0089062139361960e+01 xlo xhi
2.0391323200399267e-01 2.9001051864996029e+01 ylo yhi
-6.0560705143019873e-02 4.7237812015143056e+01 zlo zhi
0.0000000000000000e+00 0.0000000000000000e+00 0.0000000000000000e+00 xy xz yz

Masses

1 26.982

Atoms # charge

1 1 0.0000000000000000e+00 2.0089062139263657e+01 2.3270237617224151e+01 1.5944755113216219e+01 -1 0 0
2 1 0.0000000000000000e+00 2.0089062139263643e+01 8.8716683007281780e+00 1.5944755113216205e+01 -1 0 0
3 1 0.0000000000000000e+00 4.1465625866844569e+00 2.3270237617224417e+01 1.5944755113216219e+01 0 0 0
4 1 0.0000000000000000e+00 4.1465625866844817e+00 8.8716683007282509e+00 1.5944755113216258e+01 0 0 0
5 1 0.0000000000000000e+00 8.1321874748293244e+00 2.3270237617224176e+01 1.5944755113216276e+01 0 0 0
6 1 0.0000000000000000e+00 8.1321874748293723e+00 8.8716683007283699e+00 1.5944755113216258e+01 0 0 0
7 1 0.0000000000000000e+00 1.2117812362974098e+01 2.3270237617224389e+01 1.5944755113216216e+01 0 0 0
8 1 0.0000000000000000e+00 1.2117812362974057e+01 8.8716683007283841e+00 1.5944755113216219e+01 0 0 0
9 1 0.0000000000000000e+00 1.6103437251118830e+01 2.3270237617224169e+01 1.5944755113216223e+01 0 0 0
10 1 0.0000000000000000e+00 1.6103437251118919e+01 8.8716683007282846e+00 1.5944755113216237e+01 0 0 0
11 1 0.0000000000000000e+00 2.0089062139263607e+01 1.9942919066074236e+01 1.3905761664635472e+01 -1 0 0
12 1 0.0000000000000000e+00 2.0089062139263618e+01 5.5443497495782319e+00 1.3905761664635538e+01 -1 0 0
13 1 0.0000000000000000e+00 4.1465625866844693e+00 1.9942919066074204e+01 1.3905761664635504e+01 0 0 0
14 1 0.0000000000000000e+00 4.1465625866844569e+00 5.5443497495782372e+00 1.3905761664635556e+01 0 0 0
15 1 0.0000000000000000e+00 8.1321874748292355e+00 1.9942919066074278e+01 1.3905761664635525e+01 0 0 0
16 1 0.0000000000000000e+00 8.1321874748292231e+00 5.5443497495782434e+00 1.3905761664635554e+01 0 0 0
17 1 0.0000000000000000e+00 1.2117812362974018e+01 1.9942919066074225e+01 1.3905761664635520e+01 0 0 0
18 1 0.0000000000000000e+00 1.2117812362974048e+01 5.5443497495782594e+00 1.3905761664635598e+01 0 0 0
19 1 0.0000000000000000e+00 1.6103437251118802e+01 1.9942919066074236e+01 1.3905761664635428e+01 0 0 0
20 1 0.0000000000000000e+00 1.6103437251118777e+01 5.5443497495782301e+00 1.3905761664635472e+01 0 0 0
21 1 0.0000000000000000e+00 2.0089062139263639e+01 2.8801070173439054e+01 1.4887870545061846e+01 -1 0 0
22 1 0.0000000000000000e+00 2.0089062139263653e+01 1.4402500856942961e+01 1.4887870545061759e+01 -1 0 0
23 1 0.0000000000000000e+00 4.1465625866844391e+00 2.8801070173439175e+01 1.4887870545061864e+01 0 0 0
24 1 0.0000000000000000e+00 4.1465625866844675e+00 1.4402500856942950e+01 1.4887870545061803e+01 0 0 0
25 1 0.0000000000000000e+00 8.1321874748292533e+00 2.8801070173439062e+01 1.4887870545061851e+01 0 0 0
26 1 0.0000000000000000e+00 8.1321874748292977e+00 1.4402500856943103e+01 1.4887870545061819e+01 0 0 0
27 1 0.0000000000000000e+00 1.2117812362974046e+01 2.8801070173439197e+01 1.4887870545061885e+01 0 0 0
28 1 0.0000000000000000e+00 1.2117812362974036e+01 1.4402500856943034e+01 1.4887870545061817e+01 0 0 0
29 1 0.0000000000000000e+00 1.6103437251118788e+01 2.8801070173439022e+01 1.4887870545061775e+01 0 0 0
30 1 0.0000000000000000e+00 1.6103437251118848e+01 1.4402500856942993e+01 1.4887870545061753e+01 0 0 0
31 1 0.0000000000000000e+00 2.1537501426118992e+00 2.1601785515191004e+01 1.4887870545061798e+01 0 0 0
32 1 0.0000000000000000e+00 2.1537501426119401e+00 7.2032161986949115e+00 1.4887870545061809e+01 0 0 0
33 1 0.0000000000000000e+00 6.1393750307568054e+00 2.1601785515190933e+01 1.4887870545061759e+01 0 0 0
34 1 0.0000000000000000e+00 6.1393750307567148e+00 7.2032161986948671e+00 1.4887870545061730e+01 0 0 0
35 1 0.0000000000000000e+00 1.0124999918901466e+01 2.1601785515190929e+01 1.4887870545061801e+01 0 0 0
36 1 0.0000000000000000e+00 1.0124999918901523e+01 7.2032161986948866e+00 1.4887870545061753e+01 0 0 0
37 1 0.0000000000000000e+00 1.4110624807046333e+01 2.1601785515191022e+01 1.4887870545061769e+01 0 0 0
38 1 0.0000000000000000e+00 1.4110624807046280e+01 7.2032161986948600e+00 1.4887870545061720e+01 0 0 0
39 1 0.0000000000000000e+00 1.8096249695191119e+01 2.1601785515191036e+01 1.4887870545061825e+01 0 0 0
40 1 0.0000000000000000e+00 1.8096249695191137e+01 7.2032161986949914e+00 1.4887870545061798e+01 0 0 0
41 1 0.0000000000000000e+00 2.1537501426119521e+00 1.6723836424799874e+00 1.5944755113216237e+01 0 0 0
42 1 0.0000000000000000e+00 2.1537501426118628e+00 1.6070952958976235e+01 1.5944755113216248e+01 0 0 0
43 1 0.0000000000000000e+00 6.1393750307566686e+00 1.6723836424800034e+00 1.5944755113216209e+01 0 0 0
44 1 0.0000000000000000e+00 6.1393750307567503e+00 1.6070952958976179e+01 1.5944755113216244e+01 0 0 0
45 1 0.0000000000000000e+00 1.0124999918901569e+01 1.6723836424800509e+00 1.5944755113216155e+01 0 0 0
46 1 0.0000000000000000e+00 1.0124999918901397e+01 1.6070952958976161e+01 1.5944755113216187e+01 0 0 0
47 1 0.0000000000000000e+00 1.4110624807046200e+01 1.6723836424799703e+00 1.5944755113216230e+01 0 0 0
48 1 0.0000000000000000e+00 1.4110624807046255e+01 1.6070952958976211e+01 1.5944755113216230e+01 0 0 0
49 1 0.0000000000000000e+00 1.8096249695191158e+01 1.6723836424802458e+00 1.5944755113216170e+01 0 0 0
50 1 0.0000000000000000e+00 1.8096249695191094e+01 1.6070952958976374e+01 1.5944755113216198e+01 0 0 0
51 1 0.0000000000000000e+00 2.1537501426119694e+00 2.7142203724322226e+01 1.3905761664635435e+01 0 0 0
52 1 0.0000000000000000e+00 2.1537501426119774e+00 1.2743634407826242e+01 1.3905761664635525e+01 0 0 0
53 1 0.0000000000000000e+00 6.1393750307567991e+00 2.7142203724322197e+01 1.3905761664635406e+01 0 0 0
54 1 0.0000000000000000e+00 6.1393750307567236e+00 1.2743634407826216e+01 1.3905761664635435e+01 0 0 0
55 1 0.0000000000000000e+00 1.0124999918901510e+01 2.7142203724322187e+01 1.3905761664635465e+01 0 0 0
56 1 0.0000000000000000e+00 1.0124999918901546e+01 1.2743634407826210e+01 1.3905761664635488e+01 0 0 0
57 1 0.0000000000000000e+00 1.4110624807046380e+01 2.7142203724322226e+01 1.3905761664635396e+01 0 0 0
58 1 0.0000000000000000e+00 1.4110624807046333e+01 1.2743634407826232e+01 1.3905761664635396e+01 0 0 0
59 1 0.0000000000000000e+00 1.8096249695191119e+01 2.7142203724322194e+01 1.3905761664635520e+01 0 0 0
60 1 0.0000000000000000e+00 1.8096249695191112e+01 1.2743634407826228e+01 1.3905761664635538e+01 0 0 0
61 1 0.0000000000000000e+00 2.1537501426120320e+00 2.4354780068545676e+01 1.4353540299494309e+01 0 0 0
62 1 0.0000000000000000e+00 2.1537501426119854e+00 9.9562107520496603e+00 1.4353540299494291e+01 0 0 0
63 1 0.0000000000000000e+00 6.1393750307567272e+00 2.4354780068545715e+01 1.4353540299494282e+01 0 0 0
64 1 0.0000000000000000e+00 6.1393750307567725e+00 9.9562107520496834e+00 1.4353540299494282e+01 0 0 0
65 1 0.0000000000000000e+00 1.0124999918901569e+01 2.4354780068545750e+01 1.4353540299494346e+01 0 0 0
66 1 0.0000000000000000e+00 1.0124999918901533e+01 9.9562107520497101e+00 1.4353540299494403e+01 0 0 0
67 1 0.0000000000000000e+00 1.4110624807046300e+01 2.4354780068545658e+01 1.4353540299494293e+01 0 0 0
68 1 0.0000000000000000e+00 1.4110624807046298e+01 9.9562107520496674e+00 1.4353540299494304e+01 0 0 0
69 1 0.0000000000000000e+00 1.8096249695191130e+01 2.4354780068545715e+01 1.4353540299494298e+01 0 0 0
70 1 0.0000000000000000e+00 1.8096249695191094e+01 9.9562107520496674e+00 1.4353540299494338e+01 0 0 0
71 1 0.0000000000000000e+00 2.1537501426119743e+00 1.8817330437745408e+01 1.5445379669842872e+01 0 0 0
72 1 0.0000000000000000e+00 2.1537501426119423e+00 4.4187611212495765e+00 1.5445379669842865e+01 0 0 0
73 1 0.0000000000000000e+00 6.1393750307566277e+00 1.8817330437745472e+01 1.5445379669842866e+01 0 0 0
74 1 0.0000000000000000e+00 6.1393750307567316e+00 4.4187611212495792e+00 1.5445379669842884e+01 0 0 0
75 1 0.0000000000000000e+00 1.0124999918901533e+01 1.8817330437745490e+01 1.5445379669842911e+01 0 0 0
76 1 0.0000000000000000e+00 1.0124999918901517e+01 4.4187611212495632e+00 1.5445379669842954e+01 0 0 0
77 1 0.0000000000000000e+00 1.4110624807046182e+01 1.8817330437745397e+01 1.5445379669842920e+01 0 0 0
78 1 0.0000000000000000e+00 1.4110624807046172e+01 4.4187611212496067e+00 1.5445379669842904e+01 0 0 0
79 1 0.0000000000000000e+00 1.8096249695191084e+01 1.8817330437745301e+01 1.5445379669842895e+01 0 0 0
80 1 0.0000000000000000e+00 1.8096249695191116e+01 4.4187611212493918e+00 1.5445379669842927e+01 0 0 0
81 1 0.0000000000000000e+00 2.1537501426119139e+00 2.7725009307389957e+01 1.6545602310940797e+01 0 0 0
82 1 0.0000000000000000e+00 2.1537501426119454e+00 1.3326439990893727e+01 1.6545602310940748e+01 0 0 0
83 1 0.0000000000000000e+00 6.1393750307567725e+00 2.7725009307389946e+01 1.6545602310940907e+01 0 0 0
84 1 0.0000000000000000e+00 6.1393750307566322e+00 1.3326439990893808e+01 1.6545602310940911e+01 0 0 0
85 1 0.0000000000000000e+00 1.0124999918901459e+01 2.7725009307389861e+01 1.6545602310940819e+01 0 0 0
86 1 0.0000000000000000e+00 1.0124999918901493e+01 1.3326439990893794e+01 1.6545602310940808e+01 0 0 0
87 1 0.0000000000000000e+00 1.4110624807046271e+01 2.7725009307389989e+01 1.6545602310940922e+01 0 0 0
88 1 0.0000000000000000e+00 1.4110624807046209e+01 1.3326439990893840e+01 1.6545602310941010e+01 0 0 0
89 1 0.0000000000000000e+00 1.8096249695191119e+01 2.7725009307389669e+01 1.6545602310940772e+01 0 0 0
90 1 0.0000000000000000e+00 1.8096249695191005e+01 1.3326439990893588e+01 1.6545602310940765e+01 0 0 0
91 1 0.0000000000000000e+00 2.0089062139263646e+01 2.0525724649141885e+01 1.6545602310940808e+01 -1 0 0
92 1 0.0000000000000000e+00 2.0089062139263664e+01 6.1271553326457235e+00 1.6545602310940669e+01 -1 0 0
93 1 0.0000000000000000e+00 4.1465625866844960e+00 2.0525724649141623e+01 1.6545602310940858e+01 0 0 0
94 1 0.0000000000000000e+00 4.1465625866844613e+00 6.1271553326456560e+00 1.6545602310940705e+01 0 0 0
95 1 0.0000000000000000e+00 8.1321874748293457e+00 2.0525724649141839e+01 1.6545602310940716e+01 0 0 0
96 1 0.0000000000000000e+00 8.1321874748293244e+00 6.1271553326455646e+00 1.6545602310940719e+01 0 0 0
97 1 0.0000000000000000e+00 1.2117812362974075e+01 2.0525724649141615e+01 1.6545602310940776e+01 0 0 0
98 1 0.0000000000000000e+00 1.2117812362974119e+01 6.1271553326455237e+00 1.6545602310940609e+01 0 0 0
99 1 0.0000000000000000e+00 1.6103437251118912e+01 2.0525724649141829e+01 1.6545602310940900e+01 0 0 0
100 1 0.0000000000000000e+00 1.6103437251118876e+01 6.1271553326456649e+00 1.6545602310940847e+01 0 0 0
101 1 0.0000000000000000e+00 2.0089062139263547e+01 2.7569260938016216e+00 1.4353540299494272e+01 -1 0 0
102 1 0.0000000000000000e+00 2.0089062139263572e+01 1.7155495410297668e+01 1.4353540299494354e+01 -1 0 0
103 1 0.0000000000000000e+00 4.1465625866844498e+00 2.7569260938015829e+00 1.4353540299494226e+01 0 0 0
104 1 0.0000000000000000e+00 4.1465625866844480e+00 1.7155495410297704e+01 1.4353540299494291e+01 0 0 0
105 1 0.0000000000000000e+00 8.1321874748292373e+00 2.7569260938016051e+00 1.4353540299494195e+01 0 0 0
106 1 0.0000000000000000e+00 8.1321874748292498e+00 1.7155495410297590e+01 1.4353540299494304e+01 0 0 0
107 1 0.0000000000000000e+00 1.2117812362974018e+01 2.7569260938015683e+00 1.4353540299494275e+01 0 0 0
108 1 0.0000000000000000e+00 1.2117812362974044e+01 1.7155495410297668e+01 1.4353540299494298e+01 0 0 0
109 1 0.0000000000000000e+00 1.6103437251118855e+01 2.7569260938016109e+00 1.4353540299494195e+01 0 0 0
110 1 0.0000000000000000e+00 1.6103437251118841e+01 1.7155495410297654e+01 1.4353540299494309e+01 0 0 0
111 1 0.0000000000000000e+00 2.0089062139263511e+01 2.6016615095993444e+01 1.5445379669842865e+01 -1 0 0
112 1 0.0000000000000000e+00 2.0089062139263607e+01 1.1618045779497450e+01 1.5445379669842906e+01 -1 0 0
113 1 0.0000000000000000e+00 4.1465625866844684e+00 2.6016615095993231e+01 1.5445379669842884e+01 0 0 0
114 1 0.0000000000000000e+00 4.1465625866844675e+00 1.1618045779497425e+01 1.5445379669842909e+01 0 0 0
115 1 0.0000000000000000e+00 8.1321874748293688e+00 2.6016615095993423e+01 1.5445379669842806e+01 0 0 0
116 1 0.0000000000000000e+00 8.1321874748293919e+00 1.1618045779497269e+01 1.5445379669842904e+01 0 0 0
117 1 0.0000000000000000e+00 1.2117812362973991e+01 2.6016615095993242e+01 1.5445379669842895e+01 0 0 0
118 1 0.0000000000000000e+00 1.2117812362974027e+01 1.1618045779497292e+01 1.5445379669842906e+01 0 0 0
119 1 0.0000000000000000e+00 1.6103437251118972e+01 2.6016615095993437e+01 1.5445379669842822e+01 0 0 0
120 1 0.0000000000000000e+00 1.6103437251119018e+01 1.1618045779497367e+01 1.5445379669842922e+01 0 0 0
121 1 0.0000000000000000e+00 2.0089062139263618e+01 2.1069493017512130e+01 1.9314175116078417e+01 -1 0 0
122 1 0.0000000000000000e+00 2.0089062139263653e+01 6.6709237010161404e+00 1.9314175116078527e+01 -1 0 0
123 1 0.0000000000000000e+00 4.1465625866845226e+00 2.1069493017511981e+01 1.9314175116078424e+01 0 0 0
124 1 0.0000000000000000e+00 4.1465625866844675e+00 6.6709237010161333e+00 1.9314175116078474e+01 0 0 0
125 1 0.0000000000000000e+00 8.1321874748292764e+00 2.1069493017512226e+01 1.9314175116078463e+01 0 0 0
126 1 0.0000000000000000e+00 8.1321874748292728e+00 6.6709237010162434e+00 1.9314175116078477e+01 0 0 0
127 1 0.0000000000000000e+00 1.2117812362974057e+01 2.1069493017512166e+01 1.9314175116078491e+01 0 0 0
128 1 0.0000000000000000e+00 1.2117812362974089e+01 6.6709237010162550e+00 1.9314175116078573e+01 0 0 0
129 1 0.0000000000000000e+00 1.6103437251118891e+01 2.1069493017512098e+01 1.9314175116078371e+01 0 0 0
130 1 0.0000000000000000e+00 1.6103437251118812e+01 6.6709237010162035e+00 1.9314175116078371e+01 0 0 0
131 1 0.0000000000000000e+00 2.0089062139263628e+01 1.7755927055539562e+01 1.7069088940531110e+01 -1 0 0
132 1 0.0000000000000000e+00 2.0089062139263557e+01 3.3573577390437030e+00 1.7069088940531206e+01 -1 0 0
133 1 0.0000000000000000e+00 4.1465625866845315e+00 1.7755927055539804e+01 1.7069088940531177e+01 0 0 0
134 1 0.0000000000000000e+00 4.1465625866845048e+00 3.3573577390437728e+00 1.7069088940531323e+01 0 0 0
135 1 0.0000000000000000e+00 8.1321874748293457e+00 1.7755927055539637e+01 1.7069088940531252e+01 0 0 0
136 1 0.0000000000000000e+00 8.1321874748293066e+00 3.3573577390438847e+00 1.7069088940531365e+01 0 0 0
137 1 0.0000000000000000e+00 1.2117812362974151e+01 1.7755927055539843e+01 1.7069088940531167e+01 0 0 0
138 1 0.0000000000000000e+00 1.2117812362974062e+01 3.3573577390438327e+00 1.7069088940531216e+01 0 0 0
139 1 0.0000000000000000e+00 1.6103437251118898e+01 1.7755927055539697e+01 1.7069088940531174e+01 0 0 0
140 1 0.0000000000000000e+00 1.6103437251118947e+01 3.3573577390437990e+00 1.7069088940531358e+01 0 0 0
141 1 0.0000000000000000e+00 2.0089062139263536e+01 2.6611232480075870e+01 1.8160548624705989e+01 -1 0 0
142 1 0.0000000000000000e+00 2.0089062139263653e+01 1.2212663163579771e+01 1.8160548624705974e+01 -1 0 0
143 1 0.0000000000000000e+00 4.1465625866845297e+00 2.6611232480075792e+01 1.8160548624706024e+01 0 0 0
144 1 0.0000000000000000e+00 4.1465625866845590e+00 1.2212663163579846e+01 1.8160548624705921e+01 0 0 0
145 1 0.0000000000000000e+00 8.1321874748292604e+00 2.6611232480076001e+01 1.8160548624706053e+01 0 0 0
146 1 0.0000000000000000e+00 8.1321874748292657e+00 1.2212663163579895e+01 1.8160548624706024e+01 0 0 0
147 1 0.0000000000000000e+00 1.2117812362974089e+01 2.6611232480075888e+01 1.8160548624706003e+01 0 0 0
148 1 0.0000000000000000e+00 1.2117812362974181e+01 1.2212663163579984e+01 1.8160548624705982e+01 0 0 0
149 1 0.0000000000000000e+00 1.6103437251118880e+01 2.6611232480075884e+01 1.8160548624706024e+01 0 0 0
150 1 0.0000000000000000e+00 1.6103437251118876e+01 1.2212663163579910e+01 1.8160548624705925e+01 0 0 0
151 1 0.0000000000000000e+00 2.1537501426120143e+00 1.9411947821827908e+01 1.8160548624706013e+01 0 0 0
152 1 0.0000000000000000e+00 2.1537501426119943e+00 5.0133785053317519e+00 1.8160548624705974e+01 0 0 0
153 1 0.0000000000000000e+00 6.1393750307565833e+00 1.9411947821827827e+01 1.8160548624706013e+01 0 0 0
154 1 0.0000000000000000e+00 6.1393750307567272e+00 5.0133785053316480e+00 1.8160548624705942e+01 0 0 0
155 1 0.0000000000000000e+00 1.0124999918901505e+01 1.9411947821827791e+01 1.8160548624705946e+01 0 0 0
156 1 0.0000000000000000e+00 1.0124999918901437e+01 5.0133785053316196e+00 1.8160548624705886e+01 0 0 0
157 1 0.0000000000000000e+00 1.4110624807046261e+01 1.9411947821827805e+01 1.8160548624705953e+01 0 0 0
158 1 0.0000000000000000e+00 1.4110624807046328e+01 5.0133785053317412e+00 1.8160548624705886e+01 0 0 0
159 1 0.0000000000000000e+00 1.8096249695191005e+01 1.9411947821827940e+01 1.8160548624705989e+01 0 0 0
160 1 0.0000000000000000e+00 1.8096249695191005e+01 5.0133785053316897e+00 1.8160548624705925e+01 0 0 0
161 1 0.0000000000000000e+00 2.1537501426119472e+00 2.8268777675760138e+01 1.9314175116078474e+01 0 0 0
162 1 0.0000000000000000e+00 2.1537501426119094e+00 1.3870208359264197e+01 1.9314175116078488e+01 0 0 0
163 1 0.0000000000000000e+00 6.1393750307567814e+00 2.8268777675760013e+01 1.9314175116078378e+01 0 0 0
164 1 0.0000000000000000e+00 6.1393750307566970e+00 1.3870208359264101e+01 1.9314175116078378e+01 0 0 0
165 1 0.0000000000000000e+00 1.0124999918901487e+01 2.8268777675759992e+01 1.9314175116078466e+01 0 0 0
166 1 0.0000000000000000e+00 1.0124999918901475e+01 1.3870208359264051e+01 1.9314175116078438e+01 0 0 0
167 1 0.0000000000000000e+00 1.4110624807046353e+01 2.8268777675760123e+01 1.9314175116078307e+01 0 0 0
168 1 0.0000000000000000e+00 1.4110624807046282e+01 1.3870208359264097e+01 1.9314175116078275e+01 0 0 0
169 1 0.0000000000000000e+00 1.8096249695191112e+01 2.8268777675760003e+01 1.9314175116078491e+01 0 0 0
170 1 0.0000000000000000e+00 1.8096249695191059e+01 1.3870208359264177e+01 1.9314175116078456e+01 0 0 0
171 1 0.0000000000000000e+00 2.1537501426120302e+00 2.4955211713787619e+01 1.7069088940531188e+01 0 0 0
172 1 0.0000000000000000e+00 2.1537501426119299e+00 1.0556642397291691e+01 1.7069088940531199e+01 0 0 0
173 1 0.0000000000000000e+00 6.1393750307565877e+00 2.4955211713787630e+01 1.7069088940531223e+01 0 0 0
174 1 0.0000000000000000e+00 6.1393750307566775e+00 1.0556642397291645e+01 1.7069088940531223e+01 0 0 0
175 1 0.0000000000000000e+00 1.0124999918901546e+01 2.4955211713787662e+01 1.7069088940531056e+01 0 0 0
176 1 0.0000000000000000e+00 1.0124999918901429e+01 1.0556642397291583e+01 1.7069088940530978e+01 0 0 0
177 1 0.0000000000000000e+00 1.4110624807046207e+01 2.4955211713787602e+01 1.7069088940531227e+01 0 0 0
178 1 0.0000000000000000e+00 1.4110624807046225e+01 1.0556642397291629e+01 1.7069088940531177e+01 0 0 0
179 1 0.0000000000000000e+00 1.8096249695191098e+01 2.4955211713787836e+01 1.7069088940531142e+01 0 0 0
180 1 0.0000000000000000e+00 1.8096249695191016e+01 1.0556642397291766e+01 1.7069088940531099e+01 0 0 0
181 1 0.0000000000000000e+00 2.1537501426118526e+00 2.2182631754810892e+01 1.7609638816321070e+01 0 0 0
182 1 0.0000000000000000e+00 2.1537501426119325e+00 7.7840624383149111e+00 1.7609638816321119e+01 0 0 0
183 1 0.0000000000000000e+00 6.1393750307567760e+00 2.2182631754810942e+01 1.7609638816321166e+01 0 0 0
184 1 0.0000000000000000e+00 6.1393750307566917e+00 7.7840624383150070e+00 1.7609638816321233e+01 0 0 0
185 1 0.0000000000000000e+00 1.0124999918901405e+01 2.2182631754810910e+01 1.7609638816321123e+01 0 0 0
186 1 0.0000000000000000e+00 1.0124999918901429e+01 7.7840624383150168e+00 1.7609638816321212e+01 0 0 0
187 1 0.0000000000000000e+00 1.4110624807046333e+01 2.2182631754810959e+01 1.7609638816321144e+01 0 0 0
188 1 0.0000000000000000e+00 1.4110624807046317e+01 7.7840624383149688e+00 1.7609638816321276e+01 0 0 0
189 1 0.0000000000000000e+00 1.8096249695191059e+01 2.2182631754810764e+01 1.7609638816321070e+01 0 0 0
190 1 0.0000000000000000e+00 1.8096249695191013e+01 7.7840624383148826e+00 1.7609638816321123e+01 0 0 0
191 1 0.0000000000000000e+00 2.1537501426118486e+00 1.6636669971091397e+01 1.8720560221388709e+01 0 0 0
192 1 0.0000000000000000e+00 2.1537501426119765e+00 2.2381006545955180e+00 1.8720560221388720e+01 0 0 0
193 1 0.0000000000000000e+00 6.1393750307567494e+00 1.6636669971091493e+01 1.8720560221388720e+01 0 0 0
194 1 0.0000000000000000e+00 6.1393750307567538e+00 2.2381006545956250e+00 1.8720560221388720e+01 0 0 0
195 1 0.0000000000000000e+00 1.0124999918901407e+01 1.6636669971091560e+01 1.8720560221388805e+01 0 0 0
196 1 0.0000000000000000e+00 1.0124999918901482e+01 2.2381006545956699e+00 1.8720560221388812e+01 0 0 0
197 1 0.0000000000000000e+00 1.4110624807046289e+01 1.6636669971091493e+01 1.8720560221388759e+01 0 0 0
198 1 0.0000000000000000e+00 1.4110624807046378e+01 2.2381006545954945e+00 1.8720560221388748e+01 0 0 0
199 1 0.0000000000000000e+00 1.8096249695191094e+01 1.6636669971091415e+01 1.8720560221388727e+01 0 0 0
200 1 0.0000000000000000e+00 1.8096249695191041e+01 2.2381006545956277e+00 1.8720560221388709e+01 0 0 0
201 1 0.0000000000000000e+00 2.1537501426119774e+00 2.5496819488397932e+01 1.9877503739727999e+01 0 0 0
202 1 0.0000000000000000e+00 2.1537501426118717e+00 1.1098250171901919e+01 1.9877503739728024e+01 0 0 0
203 1 0.0000000000000000e+00 6.1393750307567272e+00 2.5496819488398028e+01 1.9877503739727953e+01 0 0 0
204 1 0.0000000000000000e+00 6.1393750307567414e+00 1.1098250171901960e+01 1.9877503739728013e+01 0 0 0
205 1 0.0000000000000000e+00 1.0124999918901532e+01 2.5496819488398110e+01 1.9877503739728098e+01 0 0 0
206 1 0.0000000000000000e+00 1.0124999918901501e+01 1.1098250171902055e+01 1.9877503739728194e+01 0 0 0
207 1 0.0000000000000000e+00 1.4110624807046324e+01 2.5496819488397932e+01 1.9877503739727988e+01 0 0 0
208 1 0.0000000000000000e+00 1.4110624807046252e+01 1.1098250171901967e+01 1.9877503739728073e+01 0 0 0
209 1 0.0000000000000000e+00 1.8096249695191084e+01 2.5496819488398060e+01 1.9877503739727981e+01 0 0 0
210 1 0.0000000000000000e+00 1.8096249695191123e+01 1.1098250171901917e+01 1.9877503739728073e+01 0 0 0
211 1 0.0000000000000000e+00 2.0089062139263653e+01 1.8297534830149981e+01 1.9877503739728105e+01 -1 0 0
212 1 0.0000000000000000e+00 2.0089062139263582e+01 3.8989655136539523e+00 1.9877503739728024e+01 -1 0 0
213 1 0.0000000000000000e+00 4.1465625866844924e+00 1.8297534830150088e+01 1.9877503739728020e+01 0 0 0
214 1 0.0000000000000000e+00 4.1465625866844507e+00 3.8989655136539230e+00 1.9877503739727910e+01 0 0 0
215 1 0.0000000000000000e+00 8.1321874748292924e+00 1.8297534830149885e+01 1.9877503739727988e+01 0 0 0
216 1 0.0000000000000000e+00 8.1321874748292551e+00 3.8989655136538173e+00 1.9877503739727882e+01 0 0 0
217 1 0.0000000000000000e+00 1.2117812362974089e+01 1.8297534830149900e+01 1.9877503739728041e+01 0 0 0
218 1 0.0000000000000000e+00 1.2117812362973993e+01 3.8989655136538515e+00 1.9877503739728009e+01 0 0 0
219 1 0.0000000000000000e+00 1.6103437251118834e+01 1.8297534830149988e+01 1.9877503739728038e+01 0 0 0
220 1 0.0000000000000000e+00 1.6103437251118866e+01 3.8989655136538324e+00 1.9877503739727899e+01 0 0 0
221 1 0.0000000000000000e+00 2.0089062139263710e+01 5.8477778006681502e-01 1.7609638816321006e+01 -1 0 0
222 1 0.0000000000000000e+00 2.0089062139263717e+01 1.4983347096563003e+01 1.7609638816321205e+01 -1 0 0
223 1 0.0000000000000000e+00 4.1465625866844684e+00 5.8477778006681513e-01 1.7609638816320970e+01 0 0 0
224 1 0.0000000000000000e+00 4.1465625866845492e+00 1.4983347096562825e+01 1.7609638816321137e+01 0 0 0
225 1 0.0000000000000000e+00 8.1321874748292213e+00 5.8477778006668413e-01 1.7609638816321024e+01 0 0 0
226 1 0.0000000000000000e+00 8.1321874748292835e+00 1.4983347096562891e+01 1.7609638816321102e+01 0 0 0
227 1 0.0000000000000000e+00 1.2117812362974172e+01 5.8477778006673786e-01 1.7609638816320942e+01 0 0 0
228 1 0.0000000000000000e+00 1.2117812362974190e+01 1.4983347096562719e+01 1.7609638816321105e+01 0 0 0
229 1 0.0000000000000000e+00 1.6103437251118716e+01 5.8477778006680703e-01 1.7609638816321127e+01 0 0 0
230 1 0.0000000000000000e+00 1.6103437251118816e+01 1.4983347096562841e+01 1.7609638816321194e+01 0 0 0
231 1 0.0000000000000000e+00 2.0089062139263682e+01 2.3835954629339504e+01 1.8720560221388759e+01 -1 0 0
232 1 0.0000000000000000e+00 2.0089062139263675e+01 9.4373853128434870e+00 1.8720560221388798e+01 -1 0 0
233 1 0.0000000000000000e+00 4.1465625866845048e+00 2.3835954629339614e+01 1.8720560221388652e+01 0 0 0
234 1 0.0000000000000000e+00 4.1465625866845315e+00 9.4373853128434355e+00 1.8720560221388681e+01 0 0 0
235 1 0.0000000000000000e+00 8.1321874748292302e+00 2.3835954629339390e+01 1.8720560221388702e+01 0 0 0
236 1 0.0000000000000000e+00 8.1321874748292515e+00 9.4373853128433396e+00 1.8720560221388691e+01 0 0 0
237 1 0.0000000000000000e+00 1.2117812362974155e+01 2.3835954629339486e+01 1.8720560221388698e+01 0 0 0
238 1 0.0000000000000000e+00 1.2117812362974151e+01 9.4373853128433236e+00 1.8720560221388730e+01 0 0 0
239 1 0.0000000000000000e+00 1.6103437251118763e+01 2.3835954629339501e+01 1.8720560221388727e+01 0 0 0
240 1 0.0000000000000000e+00 1.6103437251118827e+01 9.4373853128433556e+00 1.8720560221388716e+01 0 0 0
241 1 0.0000000000000000e+00 2.0089062139263639e+01 1.8848711978483120e+01 2.2734405977100828e+01 -1 0 0
242 1 0.0000000000000000e+00 2.0089062139263525e+01 4.4501426619871909e+00 2.2734405977100813e+01 -1 0 0
243 1 0.0000000000000000e+00 4.1465625866844409e+00 1.8848711978483180e+01 2.2734405977100835e+01 0 0 0
244 1 0.0000000000000000e+00 4.1465625866844693e+00 4.4501426619871838e+00 2.2734405977100895e+01 0 0 0
245 1 0.0000000000000000e+00 8.1321874748292675e+00 1.8848711978483308e+01 2.2734405977100902e+01 0 0 0
246 1 0.0000000000000000e+00 8.1321874748291734e+00 4.4501426619872406e+00 2.2734405977100916e+01 0 0 0
247 1 0.0000000000000000e+00 1.2117812362974066e+01 1.8848711978483280e+01 2.2734405977100856e+01 0 0 0
248 1 0.0000000000000000e+00 1.2117812362974036e+01 4.4501426619873206e+00 2.2734405977100835e+01 0 0 0
249 1 0.0000000000000000e+00 1.6103437251118820e+01 1.8848711978483344e+01 2.2734405977100845e+01 0 0 0
250 1 0.0000000000000000e+00 1.6103437251118802e+01 4.4501426619872362e+00 2.2734405977100927e+01 0 0 0
251 1 0.0000000000000000e+00 2.0089062139263635e+01 1.5528678952654001e+01 2.0446797366144722e+01 -1 0 0
252 1 0.0000000000000000e+00 2.0089062139263635e+01 1.1301096361579466e+00 2.0446797366144910e+01 -1 0 0
253 1 0.0000000000000000e+00 4.1465625866844844e+00 1.5528678952653937e+01 2.0446797366144832e+01 0 0 0
254 1 0.0000000000000000e+00 4.1465625866843911e+00 1.1301096361579881e+00 2.0446797366144910e+01 0 0 0
255 1 0.0000000000000000e+00 8.1321874748292995e+00 1.5528678952654076e+01 2.0446797366144811e+01 0 0 0
256 1 0.0000000000000000e+00 8.1321874748292640e+00 1.1301096361580600e+00 2.0446797366144889e+01 0 0 0
257 1 0.0000000000000000e+00 1.2117812362974044e+01 1.5528678952654140e+01 2.0446797366144853e+01 0 0 0
258 1 0.0000000000000000e+00 1.2117812362974009e+01 1.1301096361580778e+00 2.0446797366144953e+01 0 0 0
259 1 0.0000000000000000e+00 1.6103437251118883e+01 1.5528678952654008e+01 2.0446797366144793e+01 0 0 0
260 1 0.0000000000000000e+00 1.6103437251118777e+01 1.1301096361580472e+00 2.0446797366144821e+01 0 0 0
261 1 0.0000000000000000e+00 2.0089062139263657e+01 2.4386164706734338e+01 2.1586631469209848e+01 -1 0 0
262 1 0.0000000000000000e+00 2.0089062139263593e+01 9.9875953902384342e+00 2.1586631469209735e+01 -1 0 0
263 1 0.0000000000000000e+00 4.1465625866844045e+00 2.4386164706734434e+01 2.1586631469209898e+01 0 0 0
264 1 0.0000000000000000e+00 4.1465625866844844e+00 9.9875953902384236e+00 2.1586631469209856e+01 0 0 0
265 1 0.0000000000000000e+00 8.1321874748292728e+00 2.4386164706734498e+01 2.1586631469209898e+01 0 0 0
266 1 0.0000000000000000e+00 8.1321874748292782e+00 9.9875953902385000e+00 2.1586631469209845e+01 0 0 0
267 1 0.0000000000000000e+00 1.2117812362974037e+01 2.4386164706734494e+01 2.1586631469209891e+01 0 0 0
268 1 0.0000000000000000e+00 1.2117812362974036e+01 9.9875953902386101e+00 2.1586631469209806e+01 0 0 0
269 1 0.0000000000000000e+00 1.6103437251118802e+01 2.4386164706734508e+01 2.1586631469209884e+01 0 0 0
270 1 0.0000000000000000e+00 1.6103437251118862e+01 9.9875953902384769e+00 2.1586631469209856e+01 0 0 0
271 1 0.0000000000000000e+00 2.1537501426119250e+00 1.7186880048486579e+01 2.1586631469209884e+01 0 0 0
272 1 0.0000000000000000e+00 2.1537501426119823e+00 2.7883107319903524e+00 2.1586631469209866e+01 0 0 0
273 1 0.0000000000000000e+00 6.1393750307567139e+00 1.7186880048486451e+01 2.1586631469209873e+01 0 0 0
274 1 0.0000000000000000e+00 6.1393750307567858e+00 2.7883107319903750e+00 2.1586631469209895e+01 0 0 0
275 1 0.0000000000000000e+00 1.0124999918901549e+01 1.7186880048486401e+01 2.1586631469209792e+01 0 0 0
276 1 0.0000000000000000e+00 1.0124999918901585e+01 2.7883107319903284e+00 2.1586631469209763e+01 0 0 0
277 1 0.0000000000000000e+00 1.4110624807046255e+01 1.7186880048486486e+01 2.1586631469209767e+01 0 0 0
278 1 0.0000000000000000e+00 1.4110624807046333e+01 2.7883107319903218e+00 2.1586631469209852e+01 0 0 0
279 1 0.0000000000000000e+00 1.8096249695191130e+01 1.7186880048486490e+01 2.1586631469209866e+01 0 0 0
280 1 0.0000000000000000e+00 1.8096249695191162e+01 2.7883107319904576e+00 2.1586631469209841e+01 0 0 0
281 1 0.0000000000000000e+00 2.1537501426120107e+00 2.6047996636731177e+01 2.2734405977100916e+01 0 0 0
282 1 0.0000000000000000e+00 2.1537501426119698e+00 1.1649427320235388e+01 2.2734405977100852e+01 0 0 0
283 1 0.0000000000000000e+00 6.1393750307567680e+00 2.6047996636731209e+01 2.2734405977100952e+01 0 0 0
284 1 0.0000000000000000e+00 6.1393750307566908e+00 1.1649427320235244e+01 2.2734405977100874e+01 0 0 0
285 1 0.0000000000000000e+00 1.0124999918901526e+01 2.6047996636731163e+01 2.2734405977100785e+01 0 0 0