LAMMPS data file via write_data, version 13 Jan 2016, timestep = 1046

720 atoms
1 atom types

1.3071200698683805e-01 2.0119287831013146e+01 xlo xhi
1.3424854468077743e-01 2.5480200297319218e+01 ylo yhi
-4.1024108823720505e-02 4.9989199349823679e+01 zlo zhi
0.0000000000000000e+00 0.0000000000000000e+00 0.0000000000000000e+00 xy xz yz

Masses

1 26.982

Atoms # charge

1 1 0.0000000000000000e+00 2.0119287830914534e+01 3.2112391081996789e+00 1.6326272016412943e+01 -1 0 0
2 1 0.0000000000000000e+00 2.0119287830914285e+01 1.5884214984518900e+01 1.6326272016412958e+01 -1 0 0
3 1 0.0000000000000000e+00 4.1284271716935033e+00 3.2112391081997473e+00 1.6326272016412990e+01 0 0 0
4 1 0.0000000000000000e+00 4.1284271716932155e+00 1.5884214984518984e+01 1.6326272016412986e+01 0 0 0
5 1 0.0000000000000000e+00 8.1261423364987255e+00 3.2112391081996523e+00 1.6326272016412958e+01 0 0 0
6 1 0.0000000000000000e+00 8.1261423364984733e+00 1.5884214984518868e+01 1.6326272016412929e+01 0 0 0
7 1 0.0000000000000000e+00 1.2123857501304014e+01 3.2112391081996323e+00 1.6326272016412901e+01 0 0 0
8 1 0.0000000000000000e+00 1.2123857501303741e+01 1.5884214984518881e+01 1.6326272016412940e+01 0 0 0
9 1 0.0000000000000000e+00 1.6121572666109287e+01 3.2112391081995901e+00 1.6326272016412961e+01 0 0 0
10 1 0.0000000000000000e+00 1.6121572666109007e+01 1.5884214984518806e+01 1.6326272016412922e+01 0 0 0
11 1 0.0000000000000000e+00 2.0119287830914487e+01 2.4714293424899537e+01 1.5023026420255583e+01 -1 0 0
12 1 0.0000000000000000e+00 2.0119287830914359e+01 1.2041317548580304e+01 1.5023026420255581e+01 -1 0 0
13 1 0.0000000000000000e+00 4.1284271716934215e+00 2.4714293424899545e+01 1.5023026420255572e+01 0 0 0
14 1 0.0000000000000000e+00 4.1284271716932937e+00 1.2041317548580313e+01 1.5023026420255572e+01 0 0 0
15 1 0.0000000000000000e+00 8.1261423364986847e+00 2.4714293424899552e+01 1.5023026420255567e+01 0 0 0
16 1 0.0000000000000000e+00 8.1261423364985550e+00 1.2041317548580356e+01 1.5023026420255562e+01 0 0 0
17 1 0.0000000000000000e+00 1.2123857501303954e+01 2.4714293424899477e+01 1.5023026420255567e+01 0 0 0
18 1 0.0000000000000000e+00 1.2123857501303826e+01 1.2041317548580226e+01 1.5023026420255567e+01 0 0 0
19 1 0.0000000000000000e+00 1.6121572666109227e+01 2.4714293424899495e+01 1.5023026420255569e+01 0 0 0
20 1 0.0000000000000000e+00 1.6121572666109095e+01 1.2041317548580295e+01 1.5023026420255562e+01 0 0 0
21 1 0.0000000000000000e+00 2.0119287830914423e+01 2.0883956722486690e+01 1.3943962283211702e+01 -1 0 0
22 1 0.0000000000000000e+00 2.0119287830914416e+01 8.2109808461674696e+00 1.3943962283211688e+01 -1 0 0
23 1 0.0000000000000000e+00 4.1284271716933647e+00 2.0883956722486715e+01 1.3943962283211722e+01 0 0 0
24 1 0.0000000000000000e+00 4.1284271716933647e+00 8.2109808461674909e+00 1.3943962283211716e+01 0 0 0
25 1 0.0000000000000000e+00 8.1261423364986349e+00 2.0883956722486694e+01 1.3943962283211691e+01 0 0 0
26 1 0.0000000000000000e+00 8.1261423364986278e+00 8.2109808461674643e+00 1.3943962283211706e+01 0 0 0
27 1 0.0000000000000000e+00 1.2123857501303897e+01 2.0883956722486683e+01 1.3943962283211686e+01 0 0 0
28 1 0.0000000000000000e+00 1.2123857501303892e+01 8.2109808461674678e+00 1.3943962283211658e+01 0 0 0
29 1 0.0000000000000000e+00 1.6121572666109167e+01 2.0883956722486669e+01 1.3943962283211677e+01 0 0 0
30 1 0.0000000000000000e+00 1.6121572666109167e+01 8.2109808461674376e+00 1.3943962283211697e+01 0 0 0
31 1 0.0000000000000000e+00 2.1295695892906132e+00 1.2828040802423726e+00 1.5698660773065084e+01 0 0 0
32 1 0.0000000000000000e+00 2.1295695892908881e+00 1.3955779956561619e+01 1.5698660773065063e+01 0 0 0
33 1 0.0000000000000000e+00 6.1272847540959390e+00 1.2828040802423963e+00 1.5698660773065077e+01 0 0 0
34 1 0.0000000000000000e+00 6.1272847540962330e+00 1.3955779956561598e+01 1.5698660773065084e+01 0 0 0
35 1 0.0000000000000000e+00 1.0124999918901164e+01 1.2828040802424465e+00 1.5698660773065065e+01 0 0 0
36 1 0.0000000000000000e+00 1.0124999918901411e+01 1.3955779956561674e+01 1.5698660773065054e+01 0 0 0
37 1 0.0000000000000000e+00 1.4122715083706440e+01 1.2828040802424867e+00 1.5698660773065063e+01 0 0 0
38 1 0.0000000000000000e+00 1.4122715083706749e+01 1.3955779956561710e+01 1.5698660773065054e+01 0 0 0
39 1 0.0000000000000000e+00 1.8120430248511678e+01 1.2828040802424490e+00 1.5698660773065079e+01 0 0 0
40 1 0.0000000000000000e+00 1.8120430248511937e+01 1.3955779956561662e+01 1.5698660773065084e+01 0 0 0
41 1 0.0000000000000000e+00 2.1295695892907385e+00 2.2826538199670978e+01 1.4461533808302200e+01 0 0 0
42 1 0.0000000000000000e+00 2.1295695892907993e+00 1.0153562323351769e+01 1.4461533808302207e+01 0 0 0
43 1 0.0000000000000000e+00 6.1272847540959825e+00 2.2826538199670978e+01 1.4461533808302189e+01 0 0 0
44 1 0.0000000000000000e+00 6.1272847540960367e+00 1.0153562323351752e+01 1.4461533808302180e+01 0 0 0
45 1 0.0000000000000000e+00 1.0124999918901281e+01 2.2826538199671017e+01 1.4461533808302203e+01 0 0 0
46 1 0.0000000000000000e+00 1.0124999918901350e+01 1.0153562323351801e+01 1.4461533808302207e+01 0 0 0
47 1 0.0000000000000000e+00 1.4122715083706520e+01 2.2826538199671024e+01 1.4461533808302214e+01 0 0 0
48 1 0.0000000000000000e+00 1.4122715083706574e+01 1.0153562323351812e+01 1.4461533808302212e+01 0 0 0
49 1 0.0000000000000000e+00 1.8120430248511788e+01 2.2826538199671017e+01 1.4461533808302207e+01 0 0 0
50 1 0.0000000000000000e+00 1.8120430248511852e+01 1.0153562323351792e+01 1.4461533808302200e+01 0 0 0
51 1 0.0000000000000000e+00 2.1295695892907069e+00 5.1086679775663280e+00 1.6897960073738787e+01 0 0 0
52 1 0.0000000000000000e+00 2.1295695892908948e+00 1.7781643853885512e+01 1.6897960073738787e+01 0 0 0
53 1 0.0000000000000000e+00 6.1272847540959177e+00 5.1086679775662889e+00 1.6897960073738769e+01 0 0 0
54 1 0.0000000000000000e+00 6.1272847540960935e+00 1.7781643853885527e+01 1.6897960073738755e+01 0 0 0
55 1 0.0000000000000000e+00 1.0124999918901230e+01 5.1086679775664052e+00 1.6897960073738790e+01 0 0 0
56 1 0.0000000000000000e+00 1.0124999918901423e+01 1.7781643853885601e+01 1.6897960073738780e+01 0 0 0
57 1 0.0000000000000000e+00 1.4122715083706462e+01 5.1086679775664381e+00 1.6897960073738794e+01 0 0 0
58 1 0.0000000000000000e+00 1.4122715083706632e+01 1.7781643853885640e+01 1.6897960073738787e+01 0 0 0
59 1 0.0000000000000000e+00 1.8120430248511749e+01 5.1086679775663750e+00 1.6897960073738790e+01 0 0 0
60 1 0.0000000000000000e+00 1.8120430248511937e+01 1.7781643853885615e+01 1.6897960073738783e+01 0 0 0
61 1 0.0000000000000000e+00 2.1295695892906927e+00 3.8170743851922095e+00 1.4461533808302168e+01 0 0 0
62 1 0.0000000000000000e+00 2.1295695892908295e+00 1.6490050261511421e+01 1.4461533808302175e+01 0 0 0
63 1 0.0000000000000000e+00 6.1272847540959559e+00 3.8170743851922029e+00 1.4461533808302178e+01 0 0 0
64 1 0.0000000000000000e+00 6.1272847540960891e+00 1.6490050261511442e+01 1.4461533808302180e+01 0 0 0
65 1 0.0000000000000000e+00 1.0124999918901242e+01 3.8170743851921762e+00 1.4461533808302162e+01 0 0 0
66 1 0.0000000000000000e+00 1.0124999918901354e+01 1.6490050261511399e+01 1.4461533808302173e+01 0 0 0
67 1 0.0000000000000000e+00 1.4122715083706474e+01 3.8170743851921483e+00 1.4461533808302155e+01 0 0 0
68 1 0.0000000000000000e+00 1.4122715083706622e+01 1.6490050261511371e+01 1.4461533808302164e+01 0 0 0
69 1 0.0000000000000000e+00 1.8120430248511770e+01 3.8170743851921740e+00 1.4461533808302164e+01 0 0 0
70 1 0.0000000000000000e+00 1.8120430248511887e+01 1.6490050261511406e+01 1.4461533808302164e+01 0 0 0
71 1 0.0000000000000000e+00 2.1295695892906745e+00 2.4118131792045300e+01 1.6897960073738712e+01 0 0 0
72 1 0.0000000000000000e+00 2.1295695892908646e+00 1.1445155915726044e+01 1.6897960073738709e+01 0 0 0
73 1 0.0000000000000000e+00 6.1272847540959559e+00 2.4118131792045286e+01 1.6897960073738727e+01 0 0 0
74 1 0.0000000000000000e+00 6.1272847540961326e+00 1.1445155915726083e+01 1.6897960073738737e+01 0 0 0
75 1 0.0000000000000000e+00 1.0124999918901224e+01 2.4118131792045212e+01 1.6897960073738712e+01 0 0 0
76 1 0.0000000000000000e+00 1.0124999918901434e+01 1.1445155915725973e+01 1.6897960073738712e+01 0 0 0
77 1 0.0000000000000000e+00 1.4122715083706462e+01 2.4118131792045162e+01 1.6897960073738709e+01 0 0 0
78 1 0.0000000000000000e+00 1.4122715083706634e+01 1.1445155915725932e+01 1.6897960073738709e+01 0 0 0
79 1 0.0000000000000000e+00 1.8120430248511731e+01 2.4118131792045212e+01 1.6897960073738709e+01 0 0 0
80 1 0.0000000000000000e+00 1.8120430248511934e+01 1.1445155915725994e+01 1.6897960073738719e+01 0 0 0
81 1 0.0000000000000000e+00 2.1295695892908073e+00 2.0292267894721359e+01 1.5698660773065004e+01 0 0 0
82 1 0.0000000000000000e+00 2.1295695892907851e+00 7.6192920184021178e+00 1.5698660773065020e+01 0 0 0
83 1 0.0000000000000000e+00 6.1272847540960376e+00 2.0292267894721345e+01 1.5698660773065004e+01 0 0 0
84 1 0.0000000000000000e+00 6.1272847540960331e+00 7.6192920184021222e+00 1.5698660773064987e+01 0 0 0
85 1 0.0000000000000000e+00 1.0124999918901310e+01 2.0292267894721288e+01 1.5698660773065020e+01 0 0 0
86 1 0.0000000000000000e+00 1.0124999918901235e+01 7.6192920184020538e+00 1.5698660773065029e+01 0 0 0
87 1 0.0000000000000000e+00 1.4122715083706582e+01 2.0292267894721252e+01 1.5698660773065015e+01 0 0 0
88 1 0.0000000000000000e+00 1.4122715083706600e+01 7.6192920184020192e+00 1.5698660773065019e+01 0 0 0
89 1 0.0000000000000000e+00 1.8120430248511866e+01 2.0292267894721281e+01 1.5698660773065020e+01 0 0 0
90 1 0.0000000000000000e+00 1.8120430248511802e+01 7.6192920184020601e+00 1.5698660773065010e+01 0 0 0
91 1 0.0000000000000000e+00 2.0119287830914470e+01 1.8744929080078563e+00 1.3943962283211658e+01 -1 0 0
92 1 0.0000000000000000e+00 2.0119287830914367e+01 1.4547468784327073e+01 1.3943962283211656e+01 -1 0 0
93 1 0.0000000000000000e+00 4.1284271716934189e+00 1.8744929080078403e+00 1.3943962283211631e+01 0 0 0
94 1 0.0000000000000000e+00 4.1284271716932963e+00 1.4547468784327064e+01 1.3943962283211624e+01 0 0 0
95 1 0.0000000000000000e+00 8.1261423364986953e+00 1.8744929080078530e+00 1.3943962283211663e+01 0 0 0
96 1 0.0000000000000000e+00 8.1261423364985941e+00 1.4547468784327071e+01 1.3943962283211681e+01 0 0 0
97 1 0.0000000000000000e+00 1.2123857501303954e+01 1.8744929080078883e+00 1.3943962283211677e+01 0 0 0
98 1 0.0000000000000000e+00 1.2123857501303846e+01 1.4547468784327107e+01 1.3943962283211656e+01 0 0 0
99 1 0.0000000000000000e+00 1.6121572666109216e+01 1.8744929080078665e+00 1.3943962283211668e+01 0 0 0
100 1 0.0000000000000000e+00 1.6121572666109103e+01 1.4547468784327084e+01 1.3943962283211688e+01 0 0 0
101 1 0.0000000000000000e+00 2.0119287830914434e+01 2.2220702922678477e+01 1.6326272016412858e+01 -1 0 0
102 1 0.0000000000000000e+00 2.0119287830914359e+01 9.5477270463592845e+00 1.6326272016412872e+01 -1 0 0
103 1 0.0000000000000000e+00 4.1284271716933922e+00 2.2220702922678431e+01 1.6326272016412808e+01 0 0 0
104 1 0.0000000000000000e+00 4.1284271716932937e+00 9.5477270463592294e+00 1.6326272016412819e+01 0 0 0
105 1 0.0000000000000000e+00 8.1261423364986705e+00 2.2220702922678470e+01 1.6326272016412897e+01 0 0 0
106 1 0.0000000000000000e+00 8.1261423364985976e+00 9.5477270463592223e+00 1.6326272016412897e+01 0 0 0
107 1 0.0000000000000000e+00 1.2123857501303927e+01 2.2220702922678559e+01 1.6326272016412865e+01 0 0 0
108 1 0.0000000000000000e+00 1.2123857501303837e+01 9.5477270463593893e+00 1.6326272016412879e+01 0 0 0
109 1 0.0000000000000000e+00 1.6121572666109177e+01 2.2220702922678544e+01 1.6326272016412894e+01 0 0 0
110 1 0.0000000000000000e+00 1.6121572666109085e+01 9.5477270463592987e+00 1.6326272016412897e+01 0 0 0
111 1 0.0000000000000000e+00 2.0119287830914448e+01 5.7048296104206848e+00 1.5023026420255530e+01 -1 0 0
112 1 0.0000000000000000e+00 2.0119287830914349e+01 1.8377805486739916e+01 1.5023026420255530e+01 -1 0 0
113 1 0.0000000000000000e+00 4.1284271716934073e+00 5.7048296104206635e+00 1.5023026420255537e+01 0 0 0
114 1 0.0000000000000000e+00 4.1284271716933274e+00 1.8377805486739874e+01 1.5023026420255539e+01 0 0 0
115 1 0.0000000000000000e+00 8.1261423364986793e+00 5.7048296104207195e+00 1.5023026420255519e+01 0 0 0
116 1 0.0000000000000000e+00 8.1261423364985870e+00 1.8377805486739913e+01 1.5023026420255514e+01 0 0 0
117 1 0.0000000000000000e+00 1.2123857501303943e+01 5.7048296104207044e+00 1.5023026420255542e+01 0 0 0
118 1 0.0000000000000000e+00 1.2123857501303855e+01 1.8377805486739945e+01 1.5023026420255553e+01 0 0 0
119 1 0.0000000000000000e+00 1.6121572666109195e+01 5.7048296104207665e+00 1.5023026420255539e+01 0 0 0
120 1 0.0000000000000000e+00 1.6121572666109113e+01 1.8377805486739955e+01 1.5023026420255530e+01 0 0 0
121 1 0.0000000000000000e+00 2.0119287830914519e+01 1.9350435779210540e+00 2.0104272035459996e+01 -1 0 0
122 1 0.0000000000000000e+00 2.0119287830914324e+01 1.4608019454240276e+01 2.0104272035459978e+01 -1 0 0
123 1 0.0000000000000000e+00 4.1284271716934482e+00 1.9350435779210582e+00 2.0104272035459985e+01 0 0 0
124 1 0.0000000000000000e+00 4.1284271716932670e+00 1.4608019454240276e+01 2.0104272035459978e+01 0 0 0
125 1 0.0000000000000000e+00 8.1261423364987362e+00 1.9350435779210726e+00 2.0104272035459971e+01 0 0 0
126 1 0.0000000000000000e+00 8.1261423364985443e+00 1.4608019454240297e+01 2.0104272035459978e+01 0 0 0
127 1 0.0000000000000000e+00 1.2123857501303979e+01 1.9350435779209998e+00 2.0104272035459964e+01 0 0 0
128 1 0.0000000000000000e+00 1.2123857501303792e+01 1.4608019454240216e+01 2.0104272035459939e+01 0 0 0
129 1 0.0000000000000000e+00 1.6121572666109238e+01 1.9350435779210313e+00 2.0104272035459950e+01 0 0 0
130 1 0.0000000000000000e+00 1.6121572666109056e+01 1.4608019454240248e+01 2.0104272035459957e+01 0 0 0
131 1 0.0000000000000000e+00 2.0119287830914470e+01 2.3488681775903842e+01 1.8813407422317827e+01 -1 0 0
132 1 0.0000000000000000e+00 2.0119287830914331e+01 1.0815705899584611e+01 1.8813407422317809e+01 -1 0 0
133 1 0.0000000000000000e+00 4.1284271716934366e+00 2.3488681775903888e+01 1.8813407422317855e+01 0 0 0
134 1 0.0000000000000000e+00 4.1284271716933070e+00 1.0815705899584664e+01 1.8813407422317841e+01 0 0 0
135 1 0.0000000000000000e+00 8.1261423364986847e+00 2.3488681775903814e+01 1.8813407422317809e+01 0 0 0
136 1 0.0000000000000000e+00 8.1261423364985461e+00 1.0815705899584582e+01 1.8813407422317812e+01 0 0 0
137 1 0.0000000000000000e+00 1.2123857501303959e+01 2.3488681775903824e+01 1.8813407422317798e+01 0 0 0
138 1 0.0000000000000000e+00 1.2123857501303821e+01 1.0815705899584602e+01 1.8813407422317773e+01 0 0 0
139 1 0.0000000000000000e+00 1.6121572666109209e+01 2.3488681775903785e+01 1.8813407422317802e+01 0 0 0
140 1 0.0000000000000000e+00 1.6121572666109078e+01 1.0815705899584552e+01 1.8813407422317805e+01 0 0 0
141 1 0.0000000000000000e+00 2.0119287830914342e+01 1.9676469267009569e+01 1.7521929997436761e+01 -1 0 0
142 1 0.0000000000000000e+00 2.0119287830914441e+01 7.0034933906903341e+00 1.7521929997436771e+01 -1 0 0
143 1 0.0000000000000000e+00 4.1284271716933176e+00 1.9676469267009583e+01 1.7521929997436754e+01 0 0 0
144 1 0.0000000000000000e+00 4.1284271716933718e+00 7.0034933906903509e+00 1.7521929997436757e+01 0 0 0
145 1 0.0000000000000000e+00 8.1261423364985976e+00 1.9676469267009601e+01 1.7521929997436761e+01 0 0 0
146 1 0.0000000000000000e+00 8.1261423364986900e+00 7.0034933906903785e+00 1.7521929997436725e+01 0 0 0
147 1 0.0000000000000000e+00 1.2123857501303847e+01 1.9676469267009491e+01 1.7521929997436722e+01 0 0 0
148 1 0.0000000000000000e+00 1.2123857501303918e+01 7.0034933906902399e+00 1.7521929997436754e+01 0 0 0
149 1 0.0000000000000000e+00 1.6121572666109095e+01 1.9676469267009523e+01 1.7521929997436747e+01 0 0 0
150 1 0.0000000000000000e+00 1.6121572666109159e+01 7.0034933906903021e+00 1.7521929997436708e+01 0 0 0
151 1 0.0000000000000000e+00 2.1295695892906927e+00 2.5383134782887378e+01 1.9457597917362342e+01 0 0 0
152 1 0.0000000000000000e+00 2.1295695892908797e+00 1.2710158906568157e+01 1.9457597917362357e+01 0 0 0
153 1 0.0000000000000000e+00 6.1272847540959203e+00 2.5383134782887360e+01 1.9457597917362339e+01 0 0 0
154 1 0.0000000000000000e+00 6.1272847540961042e+00 1.2710158906568152e+01 1.9457597917362317e+01 0 0 0
155 1 0.0000000000000000e+00 1.0124999918901224e+01 2.5383134782887424e+01 1.9457597917362357e+01 0 0 0
156 1 0.0000000000000000e+00 1.0124999918901420e+01 1.2710158906568205e+01 1.9457597917362360e+01 0 0 0
157 1 0.0000000000000000e+00 1.4122715083706449e+01 2.5383134782887439e+01 1.9457597917362357e+01 0 0 0
158 1 0.0000000000000000e+00 1.4122715083706632e+01 1.2710158906568228e+01 1.9457597917362357e+01 0 0 0
159 1 0.0000000000000000e+00 1.8120430248511727e+01 2.5383134782887403e+01 1.9457597917362364e+01 0 0 0
160 1 0.0000000000000000e+00 1.8120430248511919e+01 1.2710158906568198e+01 1.9457597917362349e+01 0 0 0
161 1 0.0000000000000000e+00 2.1295695892907505e+00 2.1582591427556579e+01 1.8158465617786060e+01 0 0 0
162 1 0.0000000000000000e+00 2.1295695892907935e+00 8.9096155512373691e+00 1.8158465617786042e+01 0 0 0
163 1 0.0000000000000000e+00 6.1272847540960456e+00 2.1582591427556594e+01 1.8158465617786050e+01 0 0 0
164 1 0.0000000000000000e+00 6.1272847540960891e+00 8.9096155512373851e+00 1.8158465617786064e+01 0 0 0
165 1 0.0000000000000000e+00 1.0124999918901240e+01 2.1582591427556636e+01 1.8158465617786042e+01 0 0 0
166 1 0.0000000000000000e+00 1.0124999918901283e+01 8.9096155512374295e+00 1.8158465617786035e+01 0 0 0
167 1 0.0000000000000000e+00 1.4122715083706561e+01 2.1582591427556675e+01 1.8158465617786057e+01 0 0 0
168 1 0.0000000000000000e+00 1.4122715083706609e+01 8.9096155512374633e+00 1.8158465617786053e+01 0 0 0
169 1 0.0000000000000000e+00 1.8120430248511809e+01 2.1582591427556636e+01 1.8158465617786057e+01 0 0 0
170 1 0.0000000000000000e+00 1.8120430248511852e+01 8.9096155512374366e+00 1.8158465617786064e+01 0 0 0
171 1 0.0000000000000000e+00 2.1295695892906816e+00 3.8339209736046969e+00 2.0755115910526765e+01 0 0 0
172 1 0.0000000000000000e+00 2.1295695892908295e+00 1.6506896849923926e+01 2.0755115910526762e+01 0 0 0
173 1 0.0000000000000000e+00 6.1272847540959710e+00 3.8339209736047222e+00 2.0755115910526776e+01 0 0 0
174 1 0.0000000000000000e+00 6.1272847540961255e+00 1.6506896849923940e+01 2.0755115910526765e+01 0 0 0
175 1 0.0000000000000000e+00 1.0124999918901203e+01 3.8339209736047448e+00 2.0755115910526754e+01 0 0 0
176 1 0.0000000000000000e+00 1.0124999918901336e+01 1.6506896849923969e+01 2.0755115910526754e+01 0 0 0
177 1 0.0000000000000000e+00 1.4122715083706485e+01 3.8339209736047630e+00 2.0755115910526776e+01 0 0 0
178 1 0.0000000000000000e+00 1.4122715083706645e+01 1.6506896849923990e+01 2.0755115910526772e+01 0 0 0
179 1 0.0000000000000000e+00 1.8120430248511742e+01 3.8339209736047506e+00 2.0755115910526769e+01 0 0 0
180 1 0.0000000000000000e+00 1.8120430248511884e+01 1.6506896849923972e+01 2.0755115910526765e+01 0 0 0
181 1 0.0000000000000000e+00 2.1295695892906532e+00 2.5731276130778666e+00 1.8158465617785993e+01 0 0 0
182 1 0.0000000000000000e+00 2.1295695892909041e+00 1.5246103489397107e+01 1.8158465617785986e+01 0 0 0
183 1 0.0000000000000000e+00 6.1272847540959221e+00 2.5731276130778795e+00 1.8158465617785961e+01 0 0 0
184 1 0.0000000000000000e+00 6.1272847540961743e+00 1.5246103489397081e+01 1.8158465617785978e+01 0 0 0
185 1 0.0000000000000000e+00 1.0124999918901162e+01 2.5731276130778129e+00 1.8158465617785996e+01 0 0 0
186 1 0.0000000000000000e+00 1.0124999918901446e+01 1.5246103489397045e+01 1.8158465617785996e+01 0 0 0
187 1 0.0000000000000000e+00 1.4122715083706458e+01 2.5731276130777823e+00 1.8158465617785971e+01 0 0 0
188 1 0.0000000000000000e+00 1.4122715083706698e+01 1.5246103489397010e+01 1.8158465617785978e+01 0 0 0
189 1 0.0000000000000000e+00 1.8120430248511667e+01 2.5731276130778316e+00 1.8158465617785968e+01 0 0 0
190 1 0.0000000000000000e+00 1.8120430248511948e+01 1.5246103489397033e+01 1.8158465617785982e+01 0 0 0
191 1 0.0000000000000000e+00 2.1295695892907367e+00 2.2843384788083618e+01 2.0755115910526694e+01 0 0 0
192 1 0.0000000000000000e+00 2.1295695892908082e+00 1.0170408911764405e+01 2.0755115910526708e+01 0 0 0
193 1 0.0000000000000000e+00 6.1272847540959869e+00 2.2843384788083629e+01 2.0755115910526694e+01 0 0 0
194 1 0.0000000000000000e+00 6.1272847540960678e+00 1.0170408911764383e+01 2.0755115910526683e+01 0 0 0
195 1 0.0000000000000000e+00 1.0124999918901256e+01 2.2843384788083586e+01 2.0755115910526708e+01 0 0 0
196 1 0.0000000000000000e+00 1.0124999918901317e+01 1.0170408911764362e+01 2.0755115910526715e+01 0 0 0
197 1 0.0000000000000000e+00 1.4122715083706519e+01 2.2843384788083561e+01 2.0755115910526687e+01 0 0 0
198 1 0.0000000000000000e+00 1.4122715083706600e+01 1.0170408911764333e+01 2.0755115910526690e+01 0 0 0
199 1 0.0000000000000000e+00 1.8120430248511774e+01 2.2843384788083604e+01 2.0755115910526690e+01 0 0 0
200 1 0.0000000000000000e+00 1.8120430248511841e+01 1.0170408911764364e+01 2.0755115910526683e+01 0 0 0
201 1 0.0000000000000000e+00 2.1295695892908162e+00 1.9046646844727867e+01 1.9457597917362286e+01 0 0 0
202 1 0.0000000000000000e+00 2.1295695892907216e+00 6.3736709684086366e+00 1.9457597917362271e+01 0 0 0
203 1 0.0000000000000000e+00 6.1272847540960882e+00 1.9046646844727860e+01 1.9457597917362303e+01 0 0 0
204 1 0.0000000000000000e+00 6.1272847540959816e+00 6.3736709684086366e+00 1.9457597917362310e+01 0 0 0
205 1 0.0000000000000000e+00 1.0124999918901333e+01 1.9046646844727810e+01 1.9457597917362282e+01 0 0 0
206 1 0.0000000000000000e+00 1.0124999918901274e+01 6.3736709684085779e+00 1.9457597917362271e+01 0 0 0
207 1 0.0000000000000000e+00 1.4122715083706607e+01 1.9046646844727793e+01 1.9457597917362282e+01 0 0 0
208 1 0.0000000000000000e+00 1.4122715083706485e+01 6.3736709684085673e+00 1.9457597917362271e+01 0 0 0
209 1 0.0000000000000000e+00 1.8120430248511862e+01 1.9046646844727817e+01 1.9457597917362275e+01 0 0 0
210 1 0.0000000000000000e+00 1.8120430248511791e+01 6.3736709684085904e+00 1.9457597917362282e+01 0 0 0
211 1 0.0000000000000000e+00 2.0119287830914562e+01 6.6700545253071220e-01 1.7521929997436661e+01 -1 0 0
212 1 0.0000000000000000e+00 2.0119287830914271e+01 1.3339981328849943e+01 1.7521929997436676e+01 -1 0 0
213 1 0.0000000000000000e+00 4.1284271716934873e+00 6.6700545253068011e-01 1.7521929997436676e+01 0 0 0
214 1 0.0000000000000000e+00 4.1284271716932412e+00 1.3339981328849893e+01 1.7521929997436690e+01 0 0 0
215 1 0.0000000000000000e+00 8.1261423364987362e+00 6.6700545253073606e-01 1.7521929997436654e+01 0 0 0
216 1 0.0000000000000000e+00 8.1261423364984449e+00 1.3339981328849957e+01 1.7521929997436644e+01 0 0 0
217 1 0.0000000000000000e+00 1.2123857501304006e+01 6.6700545253075638e-01 1.7521929997436704e+01 0 0 0
218 1 0.0000000000000000e+00 1.2123857501303732e+01 1.3339981328849975e+01 1.7521929997436732e+01 0 0 0
219 1 0.0000000000000000e+00 1.6121572666109284e+01 6.6700545253079691e-01 1.7521929997436683e+01 0 0 0
220 1 0.0000000000000000e+00 1.6121572666109014e+01 1.3339981328850016e+01 1.7521929997436676e+01 0 0 0
221 1 0.0000000000000000e+00 2.0119287830914423e+01 2.0944507392399885e+01 2.0104272035459882e+01 -1 0 0
222 1 0.0000000000000000e+00 2.0119287830914413e+01 8.2715315160806639e+00 2.0104272035459886e+01 -1 0 0
223 1 0.0000000000000000e+00 4.1284271716933647e+00 2.0944507392399863e+01 2.0104272035459896e+01 0 0 0
224 1 0.0000000000000000e+00 4.1284271716933789e+00 8.2715315160806444e+00 2.0104272035459896e+01 0 0 0
225 1 0.0000000000000000e+00 8.1261423364986261e+00 2.0944507392399885e+01 2.0104272035459871e+01 0 0 0
226 1 0.0000000000000000e+00 8.1261423364986136e+00 8.2715315160806870e+00 2.0104272035459889e+01 0 0 0
227 1 0.0000000000000000e+00 1.2123857501303895e+01 2.0944507392399913e+01 2.0104272035459942e+01 0 0 0
228 1 0.0000000000000000e+00 1.2123857501303897e+01 8.2715315160806799e+00 2.0104272035459932e+01 0 0 0
229 1 0.0000000000000000e+00 1.6121572666109145e+01 2.0944507392399920e+01 2.0104272035459896e+01 0 0 0
230 1 0.0000000000000000e+00 1.6121572666109149e+01 8.2715315160807243e+00 2.0104272035459914e+01 0 0 0
231 1 0.0000000000000000e+00 2.0119287830914502e+01 4.4792179614250198e+00 1.8813407422317734e+01 -1 0 0
232 1 0.0000000000000000e+00 2.0119287830914324e+01 1.7152193837744221e+01 1.8813407422317727e+01 -1 0 0
233 1 0.0000000000000000e+00 4.1284271716934535e+00 4.4792179614249816e+00 1.8813407422317688e+01 0 0 0
234 1 0.0000000000000000e+00 4.1284271716932652e+00 1.7152193837744196e+01 1.8813407422317688e+01 0 0 0
235 1 0.0000000000000000e+00 8.1261423364987202e+00 4.4792179614249807e+00 1.8813407422317749e+01 0 0 0
236 1 0.0000000000000000e+00 8.1261423364985390e+00 1.7152193837744218e+01 1.8813407422317773e+01 0 0 0
237 1 0.0000000000000000e+00 1.2123857501303968e+01 4.4792179614250820e+00 1.8813407422317752e+01 0 0 0
238 1 0.0000000000000000e+00 1.2123857501303785e+01 1.7152193837744264e+01 1.8813407422317727e+01 0 0 0
239 1 0.0000000000000000e+00 1.6121572666109238e+01 4.4792179614250243e+00 1.8813407422317745e+01 0 0 0
240 1 0.0000000000000000e+00 1.6121572666109056e+01 1.7152193837744264e+01 1.8813407422317773e+01 0 0 0
241 1 0.0000000000000000e+00 2.0119287830914477e+01 6.6312363563738708e-01 2.4002737797455008e+01 -1 0 0
242 1 0.0000000000000000e+00 2.0119287830914367e+01 1.3336099511956601e+01 2.4002737797455005e+01 -1 0 0
243 1 0.0000000000000000e+00 4.1284271716934313e+00 6.6312363563739807e-01 2.4002737797455030e+01 0 0 0
244 1 0.0000000000000000e+00 4.1284271716933469e+00 1.3336099511956615e+01 2.4002737797455016e+01 0 0 0
245 1 0.0000000000000000e+00 8.1261423364986847e+00 6.6312363563736332e-01 2.4002737797455005e+01 0 0 0
246 1 0.0000000000000000e+00 8.1261423364985781e+00 1.3336099511956581e+01 2.4002737797454987e+01 0 0 0
247 1 0.0000000000000000e+00 1.2123857501303963e+01 6.6312363563736842e-01 2.4002737797454998e+01 0 0 0
248 1 0.0000000000000000e+00 1.2123857501303871e+01 1.3336099511956585e+01 2.4002737797454994e+01 0 0 0
249 1 0.0000000000000000e+00 1.6121572666109216e+01 6.6312363563735266e-01 2.4002737797455012e+01 0 0 0
250 1 0.0000000000000000e+00 1.6121572666109131e+01 1.3336099511956572e+01 2.4002737797454991e+01 0 0 0
251 1 0.0000000000000000e+00 2.0119287830914438e+01 2.2207406906522429e+01 2.2704686770201263e+01 -1 0 0
252 1 0.0000000000000000e+00 2.0119287830914420e+01 9.5344310302032085e+00 2.2704686770201256e+01 -1 0 0
253 1 0.0000000000000000e+00 4.1284271716933869e+00 2.2207406906522433e+01 2.2704686770201253e+01 0 0 0
254 1 0.0000000000000000e+00 4.1284271716933407e+00 9.5344310302032067e+00 2.2704686770201249e+01 0 0 0
255 1 0.0000000000000000e+00 8.1261423364986616e+00 2.2207406906522444e+01 2.2704686770201256e+01 0 0 0
256 1 0.0000000000000000e+00 8.1261423364986367e+00 9.5344310302032103e+00 2.2704686770201242e+01 0 0 0
257 1 0.0000000000000000e+00 1.2123857501303913e+01 2.2207406906522383e+01 2.2704686770201228e+01 0 0 0
258 1 0.0000000000000000e+00 1.2123857501303883e+01 9.5344310302031641e+00 2.2704686770201231e+01 0 0 0
259 1 0.0000000000000000e+00 1.6121572666109184e+01 2.2207406906522412e+01 2.2704686770201242e+01 0 0 0
260 1 0.0000000000000000e+00 1.6121572666109145e+01 9.5344310302031836e+00 2.2704686770201228e+01 0 0 0
261 1 0.0000000000000000e+00 2.0119287830914370e+01 1.8408024950271802e+01 2.1409556158798726e+01 -1 0 0
262 1 0.0000000000000000e+00 2.0119287830914455e+01 5.7350490739525810e+00 2.1409556158798715e+01 -1 0 0
263 1 0.0000000000000000e+00 4.1284271716933354e+00 1.8408024950271837e+01 2.1409556158798743e+01 0 0 0
264 1 0.0000000000000000e+00 4.1284271716934304e+00 5.7350490739526094e+00 2.1409556158798740e+01 0 0 0
265 1 0.0000000000000000e+00 8.1261423364985834e+00 1.8408024950271781e+01 2.1409556158798704e+01 0 0 0
266 1 0.0000000000000000e+00 8.1261423364986669e+00 5.7350490739525632e+00 2.1409556158798726e+01 0 0 0
267 1 0.0000000000000000e+00 1.2123857501303860e+01 1.8408024950271798e+01 2.1409556158798718e+01 0 0 0
268 1 0.0000000000000000e+00 1.2123857501303945e+01 5.7350490739525659e+00 2.1409556158798694e+01 0 0 0
269 1 0.0000000000000000e+00 1.6121572666109113e+01 1.8408024950271766e+01 2.1409556158798704e+01 0 0 0
270 1 0.0000000000000000e+00 1.6121572666109209e+01 5.7350490739525481e+00 2.1409556158798726e+01 0 0 0
271 1 0.0000000000000000e+00 2.1295695892907105e+00 2.4107700509616581e+01 2.3353303219409561e+01 0 0 0
272 1 0.0000000000000000e+00 2.1295695892907847e+00 1.1434724633297359e+01 2.3353303219409540e+01 0 0 0
273 1 0.0000000000000000e+00 6.1272847540959932e+00 2.4107700509616599e+01 2.3353303219409550e+01 0 0 0
274 1 0.0000000000000000e+00 6.1272847540960642e+00 1.1434724633297394e+01 2.3353303219409561e+01 0 0 0
275 1 0.0000000000000000e+00 1.0124999918901226e+01 2.4107700509616620e+01 2.3353303219409543e+01 0 0 0
276 1 0.0000000000000000e+00 1.0124999918901306e+01 1.1434724633297405e+01 2.3353303219409533e+01 0 0 0
277 1 0.0000000000000000e+00 1.4122715083706520e+01 2.4107700509616635e+01 2.3353303219409565e+01 0 0 0
278 1 0.0000000000000000e+00 1.4122715083706591e+01 1.1434724633297419e+01 2.3353303219409558e+01 0 0 0
279 1 0.0000000000000000e+00 1.8120430248511767e+01 2.4107700509616610e+01 2.3353303219409543e+01 0 0 0
280 1 0.0000000000000000e+00 1.8120430248511841e+01 1.1434724633297407e+01 2.3353303219409547e+01 0 0 0
281 1 0.0000000000000000e+00 2.1295695892907816e+00 2.0307676811950305e+01 2.2057046786249479e+01 0 0 0
282 1 0.0000000000000000e+00 2.1295695892907549e+00 7.6347009356310931e+00 2.2057046786249497e+01 0 0 0
283 1 0.0000000000000000e+00 6.1272847540960154e+00 2.0307676811950298e+01 2.2057046786249487e+01 0 0 0
284 1 0.0000000000000000e+00 6.1272847540959976e+00 7.6347009356310798e+00 2.2057046786249469e+01 0 0 0
285 1 0.0000000000000000e+00 1.0124999918901322e+01 2.0307676811950344e+01 2.2057046786249494e+01 0 0 0