datafile (written by JARVIS-FF) 

720 	 atoms 
1  atom types
0.0 20.249999838  xlo xhi
0.0 25.614448842  ylo yhi
0.0 49.948175241  zlo zhi
0E-9 0E-9 0E-9  xy xz yz


Atoms 

     1   1 0.000000 0E-9 3.095079235 16.329211137
     2   1 0.000000 0E-9 15.902303656 16.329211137
     3   1 0.000000 4.049999968 3.095079235 16.329211137
     4   1 0.000000 4.049999968 15.902303656 16.329211137
     5   1 0.000000 8.099999935 3.095079235 16.329211137
     6   1 0.000000 8.099999935 15.902303656 16.329211137
     7   1 0.000000 12.149999903 3.095079235 16.329211137
     8   1 0.000000 12.149999903 15.902303656 16.329211137
     9   1 0.000000 16.199999870 3.095079235 16.329211137
    10   1 0.000000 16.199999870 15.902303656 16.329211137
    11   1 0.000000 0E-9 24.867360751 15.048488695
    12   1 0.000000 0E-9 12.060136330 15.048488695
    13   1 0.000000 4.049999968 24.867360751 15.048488695
    14   1 0.000000 4.049999968 12.060136330 15.048488695
    15   1 0.000000 8.099999935 24.867360751 15.048488695
    16   1 0.000000 8.099999935 12.060136330 15.048488695
    17   1 0.000000 12.149999903 24.867360751 15.048488695
    18   1 0.000000 12.149999903 12.060136330 15.048488695
    19   1 0.000000 16.199999870 24.867360751 15.048488695
    20   1 0.000000 16.199999870 12.060136330 15.048488695
    21   1 0.000000 0E-9 21.025193424 13.767766253
    22   1 0.000000 0E-9 8.217969003 13.767766253
    23   1 0.000000 4.049999968 21.025193424 13.767766253
    24   1 0.000000 4.049999968 8.217969003 13.767766253
    25   1 0.000000 8.099999935 21.025193424 13.767766253
    26   1 0.000000 8.099999935 8.217969003 13.767766253
    27   1 0.000000 12.149999903 21.025193424 13.767766253
    28   1 0.000000 12.149999903 8.217969003 13.767766253
    29   1 0.000000 16.199999870 21.025193424 13.767766253
    30   1 0.000000 16.199999870 8.217969003 13.767766253
    31   1 0.000000 2.024999984 1.173995572 15.688849916
    32   1 0.000000 2.024999984 13.981219993 15.688849916
    33   1 0.000000 6.074999951 1.173995572 15.688849916
    34   1 0.000000 6.074999951 13.981219993 15.688849916
    35   1 0.000000 10.124999919 1.173995572 15.688849916
    36   1 0.000000 10.124999919 13.981219993 15.688849916
    37   1 0.000000 14.174999886 1.173995572 15.688849916
    38   1 0.000000 14.174999886 13.981219993 15.688849916
    39   1 0.000000 18.224999854 1.173995572 15.688849916
    40   1 0.000000 18.224999854 13.981219993 15.688849916
    41   1 0.000000 2.024999984 22.946277088 14.408127474
    42   1 0.000000 2.024999984 10.139052667 14.408127474
    43   1 0.000000 6.074999951 22.946277088 14.408127474
    44   1 0.000000 6.074999951 10.139052667 14.408127474
    45   1 0.000000 10.124999919 22.946277088 14.408127474
    46   1 0.000000 10.124999919 10.139052667 14.408127474
    47   1 0.000000 14.174999886 22.946277088 14.408127474
    48   1 0.000000 14.174999886 10.139052667 14.408127474
    49   1 0.000000 18.224999854 22.946277088 14.408127474
    50   1 0.000000 18.224999854 10.139052667 14.408127474
    51   1 0.000000 2.024999984 5.016162898 16.969572358
    52   1 0.000000 2.024999984 17.823387319 16.969572358
    53   1 0.000000 6.074999951 5.016162898 16.969572358
    54   1 0.000000 6.074999951 17.823387319 16.969572358
    55   1 0.000000 10.124999919 5.016162898 16.969572358
    56   1 0.000000 10.124999919 17.823387319 16.969572358
    57   1 0.000000 14.174999886 5.016162898 16.969572358
    58   1 0.000000 14.174999886 17.823387319 16.969572358
    59   1 0.000000 18.224999854 5.016162898 16.969572358
    60   1 0.000000 18.224999854 17.823387319 16.969572358
    61   1 0.000000 2.024999984 3.735440456 14.408127474
    62   1 0.000000 2.024999984 16.542664877 14.408127474
    63   1 0.000000 6.074999951 3.735440456 14.408127474
    64   1 0.000000 6.074999951 16.542664877 14.408127474
    65   1 0.000000 10.124999919 3.735440456 14.408127474
    66   1 0.000000 10.124999919 16.542664877 14.408127474
    67   1 0.000000 14.174999886 3.735440456 14.408127474
    68   1 0.000000 14.174999886 16.542664877 14.408127474
    69   1 0.000000 18.224999854 3.735440456 14.408127474
    70   1 0.000000 18.224999854 16.542664877 14.408127474
    71   1 0.000000 2.024999984 24.226999530 16.969572358
    72   1 0.000000 2.024999984 11.419775109 16.969572358
    73   1 0.000000 6.074999951 24.226999530 16.969572358
    74   1 0.000000 6.074999951 11.419775109 16.969572358
    75   1 0.000000 10.124999919 24.226999530 16.969572358
    76   1 0.000000 10.124999919 11.419775109 16.969572358
    77   1 0.000000 14.174999886 24.226999530 16.969572358
    78   1 0.000000 14.174999886 11.419775109 16.969572358
    79   1 0.000000 18.224999854 24.226999530 16.969572358
    80   1 0.000000 18.224999854 11.419775109 16.969572358
    81   1 0.000000 2.024999984 20.384832203 15.688849916
    82   1 0.000000 2.024999984 7.577607782 15.688849916
    83   1 0.000000 6.074999951 20.384832203 15.688849916
    84   1 0.000000 6.074999951 7.577607782 15.688849916
    85   1 0.000000 10.124999919 20.384832203 15.688849916
    86   1 0.000000 10.124999919 7.577607782 15.688849916
    87   1 0.000000 14.174999886 20.384832203 15.688849916
    88   1 0.000000 14.174999886 7.577607782 15.688849916
    89   1 0.000000 18.224999854 20.384832203 15.688849916
    90   1 0.000000 18.224999854 7.577607782 15.688849916
    91   1 0.000000 0E-9 1.814356793 13.767766253
    92   1 0.000000 0E-9 14.621581214 13.767766253
    93   1 0.000000 4.049999968 1.814356793 13.767766253
    94   1 0.000000 4.049999968 14.621581214 13.767766253
    95   1 0.000000 8.099999935 1.814356793 13.767766253
    96   1 0.000000 8.099999935 14.621581214 13.767766253
    97   1 0.000000 12.149999903 1.814356793 13.767766253
    98   1 0.000000 12.149999903 14.621581214 13.767766253
    99   1 0.000000 16.199999870 1.814356793 13.767766253
   100   1 0.000000 16.199999870 14.621581214 13.767766253
   101   1 0.000000 0E-9 22.305915867 16.329211137
   102   1 0.000000 0E-9 9.498691446 16.329211137
   103   1 0.000000 4.049999968 22.305915867 16.329211137
   104   1 0.000000 4.049999968 9.498691446 16.329211137
   105   1 0.000000 8.099999935 22.305915867 16.329211137
   106   1 0.000000 8.099999935 9.498691446 16.329211137
   107   1 0.000000 12.149999903 22.305915867 16.329211137
   108   1 0.000000 12.149999903 9.498691446 16.329211137
   109   1 0.000000 16.199999870 22.305915867 16.329211137
   110   1 0.000000 16.199999870 9.498691446 16.329211137
   111   1 0.000000 0E-9 5.656524119 15.048488695
   112   1 0.000000 0E-9 18.463748540 15.048488695
   113   1 0.000000 4.049999968 5.656524119 15.048488695
   114   1 0.000000 4.049999968 18.463748540 15.048488695
   115   1 0.000000 8.099999935 5.656524119 15.048488695
   116   1 0.000000 8.099999935 18.463748540 15.048488695
   117   1 0.000000 12.149999903 5.656524119 15.048488695
   118   1 0.000000 12.149999903 18.463748540 15.048488695
   119   1 0.000000 16.199999870 5.656524119 15.048488695
   120   1 0.000000 16.199999870 18.463748540 15.048488695
   121   1 0.000000 0E-9 1.814356793 20.171378463
   122   1 0.000000 0E-9 14.621581214 20.171378463
   123   1 0.000000 4.049999968 1.814356793 20.171378463
   124   1 0.000000 4.049999968 14.621581214 20.171378463
   125   1 0.000000 8.099999935 1.814356793 20.171378463
   126   1 0.000000 8.099999935 14.621581214 20.171378463
   127   1 0.000000 12.149999903 1.814356793 20.171378463
   128   1 0.000000 12.149999903 14.621581214 20.171378463
   129   1 0.000000 16.199999870 1.814356793 20.171378463
   130   1 0.000000 16.199999870 14.621581214 20.171378463
   131   1 0.000000 0E-9 23.586638309 18.890656021
   132   1 0.000000 0E-9 10.779413888 18.890656021
   133   1 0.000000 4.049999968 23.586638309 18.890656021
   134   1 0.000000 4.049999968 10.779413888 18.890656021
   135   1 0.000000 8.099999935 23.586638309 18.890656021
   136   1 0.000000 8.099999935 10.779413888 18.890656021
   137   1 0.000000 12.149999903 23.586638309 18.890656021
   138   1 0.000000 12.149999903 10.779413888 18.890656021
   139   1 0.000000 16.199999870 23.586638309 18.890656021
   140   1 0.000000 16.199999870 10.779413888 18.890656021
   141   1 0.000000 0E-9 19.744470982 17.609933579
   142   1 0.000000 0E-9 6.937246561 17.609933579
   143   1 0.000000 4.049999968 19.744470982 17.609933579
   144   1 0.000000 4.049999968 6.937246561 17.609933579
   145   1 0.000000 8.099999935 19.744470982 17.609933579
   146   1 0.000000 8.099999935 6.937246561 17.609933579
   147   1 0.000000 12.149999903 19.744470982 17.609933579
   148   1 0.000000 12.149999903 6.937246561 17.609933579
   149   1 0.000000 16.199999870 19.744470982 17.609933579
   150   1 0.000000 16.199999870 6.937246561 17.609933579
   151   1 0.000000 2.024999984 25.507721972 19.531017242
   152   1 0.000000 2.024999984 12.700497551 19.531017242
   153   1 0.000000 6.074999951 25.507721972 19.531017242
   154   1 0.000000 6.074999951 12.700497551 19.531017242
   155   1 0.000000 10.124999919 25.507721972 19.531017242
   156   1 0.000000 10.124999919 12.700497551 19.531017242
   157   1 0.000000 14.174999886 25.507721972 19.531017242
   158   1 0.000000 14.174999886 12.700497551 19.531017242
   159   1 0.000000 18.224999854 25.507721972 19.531017242
   160   1 0.000000 18.224999854 12.700497551 19.531017242
   161   1 0.000000 2.024999984 21.665554646 18.250294800
   162   1 0.000000 2.024999984 8.858330225 18.250294800
   163   1 0.000000 6.074999951 21.665554646 18.250294800
   164   1 0.000000 6.074999951 8.858330225 18.250294800
   165   1 0.000000 10.124999919 21.665554646 18.250294800
   166   1 0.000000 10.124999919 8.858330225 18.250294800
   167   1 0.000000 14.174999886 21.665554646 18.250294800
   168   1 0.000000 14.174999886 8.858330225 18.250294800
   169   1 0.000000 18.224999854 21.665554646 18.250294800
   170   1 0.000000 18.224999854 8.858330225 18.250294800
   171   1 0.000000 2.024999984 3.735440456 20.811739684
   172   1 0.000000 2.024999984 16.542664877 20.811739684
   173   1 0.000000 6.074999951 3.735440456 20.811739684
   174   1 0.000000 6.074999951 16.542664877 20.811739684
   175   1 0.000000 10.124999919 3.735440456 20.811739684
   176   1 0.000000 10.124999919 16.542664877 20.811739684
   177   1 0.000000 14.174999886 3.735440456 20.811739684
   178   1 0.000000 14.174999886 16.542664877 20.811739684
   179   1 0.000000 18.224999854 3.735440456 20.811739684
   180   1 0.000000 18.224999854 16.542664877 20.811739684
   181   1 0.000000 2.024999984 2.454718014 18.250294800
   182   1 0.000000 2.024999984 15.261942435 18.250294800
   183   1 0.000000 6.074999951 2.454718014 18.250294800
   184   1 0.000000 6.074999951 15.261942435 18.250294800
   185   1 0.000000 10.124999919 2.454718014 18.250294800
   186   1 0.000000 10.124999919 15.261942435 18.250294800
   187   1 0.000000 14.174999886 2.454718014 18.250294800
   188   1 0.000000 14.174999886 15.261942435 18.250294800
   189   1 0.000000 18.224999854 2.454718014 18.250294800
   190   1 0.000000 18.224999854 15.261942435 18.250294800
   191   1 0.000000 2.024999984 22.946277088 20.811739684
   192   1 0.000000 2.024999984 10.139052667 20.811739684
   193   1 0.000000 6.074999951 22.946277088 20.811739684
   194   1 0.000000 6.074999951 10.139052667 20.811739684
   195   1 0.000000 10.124999919 22.946277088 20.811739684
   196   1 0.000000 10.124999919 10.139052667 20.811739684
   197   1 0.000000 14.174999886 22.946277088 20.811739684
   198   1 0.000000 14.174999886 10.139052667 20.811739684
   199   1 0.000000 18.224999854 22.946277088 20.811739684
   200   1 0.000000 18.224999854 10.139052667 20.811739684
   201   1 0.000000 2.024999984 19.104109761 19.531017242
   202   1 0.000000 2.024999984 6.296885340 19.531017242
   203   1 0.000000 6.074999951 19.104109761 19.531017242
   204   1 0.000000 6.074999951 6.296885340 19.531017242
   205   1 0.000000 10.124999919 19.104109761 19.531017242
   206   1 0.000000 10.124999919 6.296885340 19.531017242
   207   1 0.000000 14.174999886 19.104109761 19.531017242
   208   1 0.000000 14.174999886 6.296885340 19.531017242
   209   1 0.000000 18.224999854 19.104109761 19.531017242
   210   1 0.000000 18.224999854 6.296885340 19.531017242
   211   1 0.000000 0E-9 0.533634351 17.609933579
   212   1 0.000000 0E-9 13.340858772 17.609933579
   213   1 0.000000 4.049999968 0.533634351 17.609933579
   214   1 0.000000 4.049999968 13.340858772 17.609933579
   215   1 0.000000 8.099999935 0.533634351 17.609933579
   216   1 0.000000 8.099999935 13.340858772 17.609933579
   217   1 0.000000 12.149999903 0.533634351 17.609933579
   218   1 0.000000 12.149999903 13.340858772 17.609933579
   219   1 0.000000 16.199999870 0.533634351 17.609933579
   220   1 0.000000 16.199999870 13.340858772 17.609933579
   221   1 0.000000 0E-9 21.025193424 20.171378463
   222   1 0.000000 0E-9 8.217969003 20.171378463
   223   1 0.000000 4.049999968 21.025193424 20.171378463
   224   1 0.000000 4.049999968 8.217969003 20.171378463
   225   1 0.000000 8.099999935 21.025193424 20.171378463
   226   1 0.000000 8.099999935 8.217969003 20.171378463
   227   1 0.000000 12.149999903 21.025193424 20.171378463
   228   1 0.000000 12.149999903 8.217969003 20.171378463
   229   1 0.000000 16.199999870 21.025193424 20.171378463
   230   1 0.000000 16.199999870 8.217969003 20.171378463
   231   1 0.000000 0E-9 4.375801677 18.890656021
   232   1 0.000000 0E-9 17.183026098 18.890656021
   233   1 0.000000 4.049999968 4.375801677 18.890656021
   234   1 0.000000 4.049999968 17.183026098 18.890656021
   235   1 0.000000 8.099999935 4.375801677 18.890656021
   236   1 0.000000 8.099999935 17.183026098 18.890656021
   237   1 0.000000 12.149999903 4.375801677 18.890656021
   238   1 0.000000 12.149999903 17.183026098 18.890656021
   239   1 0.000000 16.199999870 4.375801677 18.890656021
   240   1 0.000000 16.199999870 17.183026098 18.890656021
   241   1 0.000000 0E-9 0.533634351 24.013545789
   242   1 0.000000 0E-9 13.340858772 24.013545789
   243   1 0.000000 4.049999968 0.533634351 24.013545789
   244   1 0.000000 4.049999968 13.340858772 24.013545789
   245   1 0.000000 8.099999935 0.533634351 24.013545789
   246   1 0.000000 8.099999935 13.340858772 24.013545789
   247   1 0.000000 12.149999903 0.533634351 24.013545789
   248   1 0.000000 12.149999903 13.340858772 24.013545789
   249   1 0.000000 16.199999870 0.533634351 24.013545789
   250   1 0.000000 16.199999870 13.340858772 24.013545789
   251   1 0.000000 0E-9 22.305915867 22.732823347
   252   1 0.000000 0E-9 9.498691446 22.732823347
   253   1 0.000000 4.049999968 22.305915867 22.732823347
   254   1 0.000000 4.049999968 9.498691446 22.732823347
   255   1 0.000000 8.099999935 22.305915867 22.732823347
   256   1 0.000000 8.099999935 9.498691446 22.732823347
   257   1 0.000000 12.149999903 22.305915867 22.732823347
   258   1 0.000000 12.149999903 9.498691446 22.732823347
   259   1 0.000000 16.199999870 22.305915867 22.732823347
   260   1 0.000000 16.199999870 9.498691446 22.732823347
   261   1 0.000000 0E-9 18.463748540 21.452100905
   262   1 0.000000 0E-9 5.656524119 21.452100905
   263   1 0.000000 4.049999968 18.463748540 21.452100905
   264   1 0.000000 4.049999968 5.656524119 21.452100905
   265   1 0.000000 8.099999935 18.463748540 21.452100905
   266   1 0.000000 8.099999935 5.656524119 21.452100905
   267   1 0.000000 12.149999903 18.463748540 21.452100905
   268   1 0.000000 12.149999903 5.656524119 21.452100905
   269   1 0.000000 16.199999870 18.463748540 21.452100905
   270   1 0.000000 16.199999870 5.656524119 21.452100905
   271   1 0.000000 2.024999984 24.226999530 23.373184568
   272   1 0.000000 2.024999984 11.419775109 23.373184568
   273   1 0.000000 6.074999951 24.226999530 23.373184568
   274   1 0.000000 6.074999951 11.419775109 23.373184568
   275   1 0.000000 10.124999919 24.226999530 23.373184568
   276   1 0.000000 10.124999919 11.419775109 23.373184568
   277   1 0.000000 14.174999886 24.226999530 23.373184568
   278   1 0.000000 14.174999886 11.419775109 23.373184568
   279   1 0.000000 18.224999854 24.226999530 23.373184568
   280   1 0.000000 18.224999854 11.419775109 23.373184568
   281   1 0.000000 2.024999984 20.384832203 22.092462126
   282   1 0.000000 2.024999984 7.577607782 22.092462126
   283   1 0.000000 6.074999951 20.384832203 22.092462126
   284   1 0.000000 6.074999951 7.577607782 22.092462126
   285   1 0.000000 10.124999919 20.384832203 22.092462126
   286   1 0.000000 10.124999919 7.577607782 22.092462126
   287   1 0.000000 14.174999886 20.384832203 22.092462126
   288   1 0.000000 14.174999886 7.577607782 22.092462126
   289   1 0.000000 18.224999854 20.384832203 22.092462126
   290   1 0.000000 18.224999854 7.577607782 22.092462126
   291   1 0.000000 2.024999984 2.454718014 24.653907010
   292   1 0.000000 2.024999984 15.261942435 24.653907010
   293   1 0.000000 6.074999951 2.454718014 24.653907010
   294   1 0.000000 6.074999951 15.261942435 24.653907010
   295   1 0.000000 10.124999919 2.454718014 24.653907010
   296   1 0.000000 10.124999919 15.261942435 24.653907010
   297   1 0.000000 14.174999886 2.454718014 24.653907010
   298   1 0.000000 14.174999886 15.261942435 24.653907010
   299   1 0.000000 18.224999854 2.454718014 24.653907010
   300   1 0.000000 18.224999854 15.261942435 24.653907010
   301   1 0.000000 2.024999984 1.173995572 22.092462126
   302   1 0.000000 2.024999984 13.981219993 22.092462126
   303   1 0.000000 6.074999951 1.173995572 22.092462126
   304   1 0.000000 6.074999951 13.981219993 22.092462126
   305   1 0.000000 10.124999919 1.173995572 22.092462126
   306   1 0.000000 10.124999919 13.981219993 22.092462126
   307   1 0.000000 14.174999886 1.173995572 22.092462126
   308   1 0.000000 14.174999886 13.981219993 22.092462126
   309   1 0.000000 18.224999854 1.173995572 22.092462126
   310   1 0.000000 18.224999854 13.981219993 22.092462126
   311   1 0.000000 2.024999984 21.665554646 24.653907010
   312   1 0.000000 2.024999984 8.858330225 24.653907010
   313   1 0.000000 6.074999951 21.665554646 24.653907010
   314   1 0.000000 6.074999951 8.858330225 24.653907010
   315   1 0.000000 10.124999919 21.665554646 24.653907010
   316   1 0.000000 10.124999919 8.858330225 24.653907010
   317   1 0.000000 14.174999886 21.665554646 24.653907010
   318   1 0.000000 14.174999886 8.858330225 24.653907010
   319   1 0.000000 18.224999854 21.665554646 24.653907010
   320   1 0.000000 18.224999854 8.858330225 24.653907010
   321   1 0.000000 2.024999984 17.823387319 23.373184568
   322   1 0.000000 2.024999984 5.016162898 23.373184568
   323   1 0.000000 6.074999951 17.823387319 23.373184568
   324   1 0.000000 6.074999951 5.016162898 23.373184568
   325   1 0.000000 10.124999919 17.823387319 23.373184568
   326   1 0.000000 10.124999919 5.016162898 23.373184568
   327   1 0.000000 14.174999886 17.823387319 23.373184568
   328   1 0.000000 14.174999886 5.016162898 23.373184568
   329   1 0.000000 18.224999854 17.823387319 23.373184568
   330   1 0.000000 18.224999854 5.016162898 23.373184568
   331   1 0.000000 0E-9 24.867360751 21.452100905
   332   1 0.000000 0E-9 12.060136330 21.452100905
   333   1 0.000000 4.049999968 24.867360751 21.452100905
   334   1 0.000000 4.049999968 12.060136330 21.452100905
   335   1 0.000000 8.099999935 24.867360751 21.452100905
   336   1 0.000000 8.099999935 12.060136330 21.452100905
   337   1 0.000000 12.149999903 24.867360751 21.452100905
   338   1 0.000000 12.149999903 12.060136330 21.452100905
   339   1 0.000000 16.199999870 24.867360751 21.452100905
   340   1 0.000000 16.199999870 12.060136330 21.452100905
   341   1 0.000000 0E-9 19.744470982 24.013545789
   342   1 0.000000 0E-9 6.937246561 24.013545789
   343   1 0.000000 4.049999968 19.744470982 24.013545789
   344   1 0.000000 4.049999968 6.937246561 24.013545789
   345   1 0.000000 8.099999935 19.744470982 24.013545789
   346   1 0.000000 8.099999935 6.937246561 24.013545789
   347   1 0.000000 12.149999903 19.744470982 24.013545789
   348   1 0.000000 12.149999903 6.937246561 24.013545789
   349   1 0.000000 16.199999870 19.744470982 24.013545789
   350   1 0.000000 16.199999870 6.937246561 24.013545789
   351   1 0.000000 0E-9 3.095079235 22.732823347
   352   1 0.000000 0E-9 15.902303656 22.732823347
   353   1 0.000000 4.049999968 3.095079235 22.732823347
   354   1 0.000000 4.049999968 15.902303656 22.732823347
   355   1 0.000000 8.099999935 3.095079235 22.732823347
   356   1 0.000000 8.099999935 15.902303656 22.732823347
   357   1 0.000000 12.149999903 3.095079235 22.732823347
   358   1 0.000000 12.149999903 15.902303656 22.732823347
   359   1 0.000000 16.199999870 3.095079235 22.732823347
   360   1 0.000000 16.199999870 15.902303656 22.732823347
   361   1 0.000000 0E-9 24.867360751 27.855713116
   362   1 0.000000 0E-9 12.060136330 27.855713116
   363   1 0.000000 4.049999968 24.867360751 27.855713116
   364   1 0.000000 4.049999968 12.060136330 27.855713116
   365   1 0.000000 8.099999935 24.867360751 27.855713116
   366   1 0.000000 8.099999935 12.060136330 27.855713116
   367   1 0.000000 12.149999903 24.867360751 27.855713116
   368   1 0.000000 12.149999903 12.060136330 27.855713116
   369   1 0.000000 16.199999870 24.867360751 27.855713116
   370   1 0.000000 16.199999870 12.060136330 27.855713116
   371   1 0.000000 0E-9 21.025193424 26.574990674
   372   1 0.000000 0E-9 8.217969003 26.574990674
   373   1 0.000000 4.049999968 21.025193424 26.574990674
   374   1 0.000000 4.049999968 8.217969003 26.574990674
   375   1 0.000000 8.099999935 21.025193424 26.574990674
   376   1 0.000000 8.099999935 8.217969003 26.574990674
   377   1 0.000000 12.149999903 21.025193424 26.574990674
   378   1 0.000000 12.149999903 8.217969003 26.574990674
   379   1 0.000000 16.199999870 21.025193424 26.574990674
   380   1 0.000000 16.199999870 8.217969003 26.574990674
   381   1 0.000000 0E-9 17.183026098 25.294268232
   382   1 0.000000 0E-9 4.375801677 25.294268232
   383   1 0.000000 4.049999968 17.183026098 25.294268232
   384   1 0.000000 4.049999968 4.375801677 25.294268232
   385   1 0.000000 8.099999935 17.183026098 25.294268232
   386   1 0.000000 8.099999935 4.375801677 25.294268232
   387   1 0.000000 12.149999903 17.183026098 25.294268232
   388   1 0.000000 12.149999903 4.375801677 25.294268232
   389   1 0.000000 16.199999870 17.183026098 25.294268232
   390   1 0.000000 16.199999870 4.375801677 25.294268232
   391   1 0.000000 2.024999984 22.946277088 27.215351895
   392   1 0.000000 2.024999984 10.139052667 27.215351895
   393   1 0.000000 6.074999951 22.946277088 27.215351895
   394   1 0.000000 6.074999951 10.139052667 27.215351895
   395   1 0.000000 10.124999919 22.946277088 27.215351895
   396   1 0.000000 10.124999919 10.139052667 27.215351895
   397   1 0.000000 14.174999886 22.946277088 27.215351895
   398   1 0.000000 14.174999886 10.139052667 27.215351895
   399   1 0.000000 18.224999854 22.946277088 27.215351895
   400   1 0.000000 18.224999854 10.139052667 27.215351895
   401   1 0.000000 2.024999984 19.104109761 25.934629453
   402   1 0.000000 2.024999984 6.296885340 25.934629453
   403   1 0.000000 6.074999951 19.104109761 25.934629453
   404   1 0.000000 6.074999951 6.296885340 25.934629453
   405   1 0.000000 10.124999919 19.104109761 25.934629453
   406   1 0.000000 10.124999919 6.296885340 25.934629453
   407   1 0.000000 14.174999886 19.104109761 25.934629453
   408   1 0.000000 14.174999886 6.296885340 25.934629453
   409   1 0.000000 18.224999854 19.104109761 25.934629453
   410   1 0.000000 18.224999854 6.296885340 25.934629453
   411   1 0.000000 2.024999984 1.173995572 28.496074337
   412   1 0.000000 2.024999984 13.981219993 28.496074337
   413   1 0.000000 6.074999951 1.173995572 28.496074337
   414   1 0.000000 6.074999951 13.981219993 28.496074337
   415   1 0.000000 10.124999919 1.173995572 28.496074337
   416   1 0.000000 10.124999919 13.981219993 28.496074337
   417   1 0.000000 14.174999886 1.173995572 28.496074337
   418   1 0.000000 14.174999886 13.981219993 28.496074337
   419   1 0.000000 18.224999854 1.173995572 28.496074337
   420   1 0.000000 18.224999854 13.981219993 28.496074337
   421   1 0.000000 2.024999984 25.507721972 25.934629453
   422   1 0.000000 2.024999984 12.700497551 25.934629453
   423   1 0.000000 6.074999951 25.507721972 25.934629453
   424   1 0.000000 6.074999951 12.700497551 25.934629453
   425   1 0.000000 10.124999919 25.507721972 25.934629453
   426   1 0.000000 10.124999919 12.700497551 25.934629453
   427   1 0.000000 14.174999886 25.507721972 25.934629453
   428   1 0.000000 14.174999886 12.700497551 25.934629453
   429   1 0.000000 18.224999854 25.507721972 25.934629453
   430   1 0.000000 18.224999854 12.700497551 25.934629453
   431   1 0.000000 2.024999984 20.384832203 28.496074337
   432   1 0.000000 2.024999984 7.577607782 28.496074337
   433   1 0.000000 6.074999951 20.384832203 28.496074337
   434   1 0.000000 6.074999951 7.577607782 28.496074337
   435   1 0.000000 10.124999919 20.384832203 28.496074337
   436   1 0.000000 10.124999919 7.577607782 28.496074337
   437   1 0.000000 14.174999886 20.384832203 28.496074337
   438   1 0.000000 14.174999886 7.577607782 28.496074337
   439   1 0.000000 18.224999854 20.384832203 28.496074337
   440   1 0.000000 18.224999854 7.577607782 28.496074337
   441   1 0.000000 2.024999984 16.542664877 27.215351895
   442   1 0.000000 2.024999984 3.735440456 27.215351895
   443   1 0.000000 6.074999951 16.542664877 27.215351895
   444   1 0.000000 6.074999951 3.735440456 27.215351895
   445   1 0.000000 10.124999919 16.542664877 27.215351895
   446   1 0.000000 10.124999919 3.735440456 27.215351895
   447   1 0.000000 14.174999886 16.542664877 27.215351895
   448   1 0.000000 14.174999886 3.735440456 27.215351895
   449   1 0.000000 18.224999854 16.542664877 27.215351895
   450   1 0.000000 18.224999854 3.735440456 27.215351895
   451   1 0.000000 0E-9 23.586638309 25.294268232
   452   1 0.000000 0E-9 10.779413888 25.294268232
   453   1 0.000000 4.049999968 23.586638309 25.294268232
   454   1 0.000000 4.049999968 10.779413888 25.294268232
   455   1 0.000000 8.099999935 23.586638309 25.294268232
   456   1 0.000000 8.099999935 10.779413888 25.294268232
   457   1 0.000000 12.149999903 23.586638309 25.294268232
   458   1 0.000000 12.149999903 10.779413888 25.294268232
   459   1 0.000000 16.199999870 23.586638309 25.294268232
   460   1 0.000000 16.199999870 10.779413888 25.294268232
   461   1 0.000000 0E-9 18.463748540 27.855713116
   462   1 0.000000 0E-9 5.656524119 27.855713116
   463   1 0.000000 4.049999968 18.463748540 27.855713116
   464   1 0.000000 4.049999968 5.656524119 27.855713116
   465   1 0.000000 8.099999935 18.463748540 27.855713116
   466   1 0.000000 8.099999935 5.656524119 27.855713116
   467   1 0.000000 12.149999903 18.463748540 27.855713116
   468   1 0.000000 12.149999903 5.656524119 27.855713116
   469   1 0.000000 16.199999870 18.463748540 27.855713116
   470   1 0.000000 16.199999870 5.656524119 27.855713116
   471   1 0.000000 0E-9 1.814356793 26.574990674
   472   1 0.000000 0E-9 14.621581214 26.574990674
   473   1 0.000000 4.049999968 1.814356793 26.574990674
   474   1 0.000000 4.049999968 14.621581214 26.574990674
   475   1 0.000000 8.099999935 1.814356793 26.574990674
   476   1 0.000000 8.099999935 14.621581214 26.574990674
   477   1 0.000000 12.149999903 1.814356793 26.574990674
   478   1 0.000000 12.149999903 14.621581214 26.574990674
   479   1 0.000000 16.199999870 1.814356793 26.574990674
   480   1 0.000000 16.199999870 14.621581214 26.574990674
   481   1 0.000000 0E-9 23.586638309 31.697880442
   482   1 0.000000 0E-9 10.779413888 31.697880442
   483   1 0.000000 4.049999968 23.586638309 31.697880442
   484   1 0.000000 4.049999968 10.779413888 31.697880442
   485   1 0.000000 8.099999935 23.586638309 31.697880442
   486   1 0.000000 8.099999935 10.779413888 31.697880442
   487   1 0.000000 12.149999903 23.586638309 31.697880442
   488   1 0.000000 12.149999903 10.779413888 31.697880442
   489   1 0.000000 16.199999870 23.586638309 31.697880442
   490   1 0.000000 16.199999870 10.779413888 31.697880442
   491   1 0.000000 0E-9 19.744470982 30.417158000
   492   1 0.000000 0E-9 6.937246561 30.417158000
   493   1 0.000000 4.049999968 19.744470982 30.417158000
   494   1 0.000000 4.049999968 6.937246561 30.417158000
   495   1 0.000000 8.099999935 19.744470982 30.417158000
   496   1 0.000000 8.099999935 6.937246561 30.417158000
   497   1 0.000000 12.149999903 19.744470982 30.417158000
   498   1 0.000000 12.149999903 6.937246561 30.417158000
   499   1 0.000000 16.199999870 19.744470982 30.417158000
   500   1 0.000000 16.199999870 6.937246561 30.417158000
   501   1 0.000000 0E-9 15.902303656 29.136435558
   502   1 0.000000 0E-9 3.095079235 29.136435558
   503   1 0.000000 4.049999968 15.902303656 29.136435558
   504   1 0.000000 4.049999968 3.095079235 29.136435558
   505   1 0.000000 8.099999935 15.902303656 29.136435558
   506   1 0.000000 8.099999935 3.095079235 29.136435558
   507   1 0.000000 12.149999903 15.902303656 29.136435558
   508   1 0.000000 12.149999903 3.095079235 29.136435558
   509   1 0.000000 16.199999870 15.902303656 29.136435558
   510   1 0.000000 16.199999870 3.095079235 29.136435558
   511   1 0.000000 2.024999984 21.665554646 31.057519221
   512   1 0.000000 2.024999984 8.858330225 31.057519221
   513   1 0.000000 6.074999951 21.665554646 31.057519221
   514   1 0.000000 6.074999951 8.858330225 31.057519221
   515   1 0.000000 10.124999919 21.665554646 31.057519221
   516   1 0.000000 10.124999919 8.858330225 31.057519221
   517   1 0.000000 14.174999886 21.665554646 31.057519221
   518   1 0.000000 14.174999886 8.858330225 31.057519221
   519   1 0.000000 18.224999854 21.665554646 31.057519221