   2   2   1   0
  0.2072475E+02  0.3884586E-09  0.3884587E-09  0.3884586E-09  0.5000000E-15
  1.000000000000000E-004
  CAR 
 unknown system                          
     49.33170424     -8.83570387 5000      5.80438371      1.00000000
     -8.836  0.0000E+00  0.0000E+00
     -8.824  0.0000E+00  0.0000E+00
     -8.812  0.0000E+00  0.0000E+00
     -8.801  0.0000E+00  0.0000E+00
     -8.789  0.0000E+00  0.0000E+00
     -8.778  0.0000E+00  0.0000E+00
     -8.766  0.0000E+00  0.0000E+00
     -8.754  0.0000E+00  0.0000E+00
     -8.743  0.0000E+00  0.0000E+00
     -8.731  0.0000E+00  0.0000E+00
     -8.719  0.0000E+00  0.0000E+00
     -8.708  0.0000E+00  0.0000E+00
     -8.696  0.0000E+00  0.0000E+00
     -8.684  0.0000E+00  0.0000E+00
     -8.673  0.0000E+00  0.0000E+00
     -8.661  0.0000E+00  0.0000E+00
     -8.650  0.0000E+00  0.0000E+00
     -8.638  0.0000E+00  0.0000E+00
     -8.626  0.0000E+00  0.0000E+00
     -8.615  0.0000E+00  0.0000E+00
     -8.603  0.0000E+00  0.0000E+00
     -8.591  0.0000E+00  0.0000E+00
     -8.580  0.0000E+00  0.0000E+00
     -8.568  0.0000E+00  0.0000E+00
     -8.556  0.0000E+00  0.0000E+00
     -8.545  0.0000E+00  0.0000E+00
     -8.533  0.0000E+00  0.0000E+00
     -8.522  0.0000E+00  0.0000E+00
     -8.510  0.0000E+00  0.0000E+00
     -8.498  0.0000E+00  0.0000E+00
     -8.487  0.0000E+00  0.0000E+00
     -8.475  0.0000E+00  0.0000E+00
     -8.463  0.0000E+00  0.0000E+00
     -8.452  0.0000E+00  0.0000E+00
     -8.440  0.0000E+00  0.0000E+00
     -8.428  0.0000E+00  0.0000E+00
     -8.417  0.0000E+00  0.0000E+00
     -8.405  0.0000E+00  0.0000E+00
     -8.394  0.0000E+00  0.0000E+00
     -8.382  0.0000E+00  0.0000E+00
     -8.370  0.0000E+00  0.0000E+00
     -8.359  0.0000E+00  0.0000E+00
     -8.347  0.0000E+00  0.0000E+00
     -8.335  0.0000E+00  0.0000E+00
     -8.324  0.0000E+00  0.0000E+00
     -8.312  0.0000E+00  0.0000E+00
     -8.300  0.0000E+00  0.0000E+00
     -8.289  0.0000E+00  0.0000E+00
     -8.277  0.0000E+00  0.0000E+00
     -8.266  0.0000E+00  0.0000E+00
     -8.254  0.0000E+00  0.0000E+00
     -8.242  0.0000E+00  0.0000E+00
     -8.231  0.0000E+00  0.0000E+00
     -8.219  0.0000E+00  0.0000E+00
     -8.207  0.0000E+00  0.0000E+00
     -8.196  0.0000E+00  0.0000E+00
     -8.184  0.0000E+00  0.0000E+00
     -8.172  0.0000E+00  0.0000E+00
     -8.161  0.0000E+00  0.0000E+00
     -8.149  0.0000E+00  0.0000E+00
     -8.138  0.0000E+00  0.0000E+00
     -8.126  0.0000E+00  0.0000E+00
     -8.114  0.0000E+00  0.0000E+00
     -8.103  0.0000E+00  0.0000E+00
     -8.091  0.0000E+00  0.0000E+00
     -8.079  0.0000E+00  0.0000E+00
     -8.068  0.0000E+00  0.0000E+00
     -8.056  0.0000E+00  0.0000E+00
     -8.044  0.0000E+00  0.0000E+00
     -8.033  0.0000E+00  0.0000E+00
     -8.021  0.0000E+00  0.0000E+00
     -8.010  0.0000E+00  0.0000E+00
     -7.998  0.0000E+00  0.0000E+00
     -7.986  0.0000E+00  0.0000E+00
     -7.975  0.0000E+00  0.0000E+00
     -7.963  0.0000E+00  0.0000E+00
     -7.951  0.0000E+00  0.0000E+00
     -7.940  0.0000E+00  0.0000E+00
     -7.928  0.0000E+00  0.0000E+00
     -7.916  0.0000E+00  0.0000E+00
     -7.905  0.0000E+00  0.0000E+00
     -7.893  0.0000E+00  0.0000E+00
     -7.882  0.0000E+00  0.0000E+00
     -7.870  0.0000E+00  0.0000E+00
     -7.858  0.0000E+00  0.0000E+00
     -7.847  0.0000E+00  0.0000E+00
     -7.835  0.0000E+00  0.0000E+00
     -7.823  0.0000E+00  0.0000E+00
     -7.812  0.0000E+00  0.0000E+00
     -7.800  0.0000E+00  0.0000E+00
     -7.788  0.0000E+00  0.0000E+00
     -7.777  0.0000E+00  0.0000E+00
     -7.765  0.0000E+00  0.0000E+00
     -7.754  0.0000E+00  0.0000E+00
     -7.742  0.0000E+00  0.0000E+00
     -7.730  0.0000E+00  0.0000E+00
     -7.719  0.0000E+00  0.0000E+00
     -7.707  0.0000E+00  0.0000E+00
     -7.695  0.0000E+00  0.0000E+00
     -7.684  0.0000E+00  0.0000E+00
     -7.672  0.0000E+00  0.0000E+00
     -7.660  0.0000E+00  0.0000E+00
     -7.649  0.0000E+00  0.0000E+00
     -7.637  0.0000E+00  0.0000E+00
     -7.626  0.0000E+00  0.0000E+00
     -7.614  0.0000E+00  0.0000E+00
     -7.602  0.0000E+00  0.0000E+00
     -7.591  0.0000E+00  0.0000E+00
     -7.579  0.0000E+00  0.0000E+00
     -7.567  0.0000E+00  0.0000E+00
     -7.556  0.0000E+00  0.0000E+00
     -7.544  0.0000E+00  0.0000E+00
     -7.532  0.0000E+00  0.0000E+00
     -7.521  0.0000E+00  0.0000E+00
     -7.509  0.0000E+00  0.0000E+00
     -7.498  0.0000E+00  0.0000E+00
     -7.486  0.0000E+00  0.0000E+00
     -7.474  0.0000E+00  0.0000E+00
     -7.463  0.0000E+00  0.0000E+00
     -7.451  0.0000E+00  0.0000E+00
     -7.439  0.0000E+00  0.0000E+00
     -7.428  0.0000E+00  0.0000E+00
     -7.416  0.0000E+00  0.0000E+00
     -7.404  0.0000E+00  0.0000E+00
     -7.393  0.0000E+00  0.0000E+00
     -7.381  0.0000E+00  0.0000E+00
     -7.370  0.7169E-17  0.8341E-19
     -7.358  0.0000E+00  0.8341E-19
     -7.346  0.1434E-16  0.2502E-18
     -7.335  0.2151E-16  0.5005E-18
     -7.323  0.3584E-16  0.9175E-18
     -7.311  0.7885E-16  0.1835E-17
     -7.300  0.1434E-15  0.3503E-17
     -7.288  0.2796E-15  0.6756E-17
     -7.277  0.5233E-15  0.1285E-16
     -7.265  0.1047E-14  0.2502E-16
     -7.253  0.1842E-14  0.4646E-16
     -7.242  0.3534E-14  0.8758E-16
     -7.230  0.6509E-14  0.1633E-15
     -7.218  0.1179E-13  0.3005E-15
     -7.207  0.2162E-13  0.5521E-15
     -7.195  0.3900E-13  0.1006E-14
     -7.183  0.6999E-13  0.1820E-14
     -7.172  0.1249E-12  0.3274E-14
     -7.160  0.2215E-12  0.5851E-14
     -7.149  0.3899E-12  0.1039E-13
     -7.137  0.6819E-12  0.1832E-13
     -7.125  0.1185E-11  0.3211E-13
     -7.114  0.2045E-11  0.5590E-13
     -7.102  0.3507E-11  0.9671E-13
     -7.090  0.5974E-11  0.1662E-12
     -7.079  0.1011E-10  0.2839E-12
     -7.067  0.1700E-10  0.4817E-12
     -7.055  0.2840E-10  0.8121E-12
     -7.044  0.4713E-10  0.1361E-11
     -7.032  0.7772E-10  0.2265E-11
     -7.021  0.1273E-09  0.3746E-11
     -7.009  0.2072E-09  0.6158E-11
     -6.997  0.3351E-09  0.1006E-10
     -6.986  0.5385E-09  0.1632E-10
     -6.974  0.8598E-09  0.2633E-10
     -6.962  0.1364E-08  0.4220E-10
     -6.951  0.2150E-08  0.6722E-10
     -6.939  0.3368E-08  0.1064E-09
     -6.927  0.5242E-08  0.1674E-09
     -6.916  0.8108E-08  0.2618E-09
     -6.904  0.1246E-07  0.4068E-09
     -6.893  0.1904E-07  0.6283E-09
     -6.881  0.2890E-07  0.9645E-09
     -6.869  0.4359E-07  0.1472E-08
     -6.858  0.6535E-07  0.2232E-08
     -6.846  0.9738E-07  0.3365E-08
     -6.834  0.1442E-06  0.5043E-08
     -6.823  0.2123E-06  0.7513E-08
     -6.811  0.3105E-06  0.1113E-07
     -6.799  0.4516E-06  0.1638E-07
     -6.788  0.6528E-06  0.2398E-07
     -6.776  0.9379E-06  0.3489E-07
     -6.765  0.1340E-05  0.5048E-07
     -6.753  0.1902E-05  0.7261E-07
     -6.741  0.2685E-05  0.1039E-06
     -6.730  0.3767E-05  0.1477E-06
     -6.718  0.5256E-05  0.2088E-06
     -6.706  0.7290E-05  0.2937E-06
     -6.695  0.1005E-04  0.4106E-06
     -6.683  0.1378E-04  0.5710E-06
     -6.671  0.1879E-04  0.7896E-06
     -6.660  0.2546E-04  0.1086E-05
     -6.648  0.3432E-04  0.1485E-05
     -6.637  0.4598E-04  0.2020E-05
     -6.625  0.6127E-04  0.2733E-05
     -6.613  0.8119E-04  0.3678E-05
     -6.602  0.1070E-03  0.4923E-05
     -6.590  0.1402E-03  0.6553E-05
     -6.578  0.1826E-03  0.8678E-05
     -6.567  0.2366E-03  0.1143E-04
     -6.555  0.3048E-03  0.1498E-04
     -6.543  0.3905E-03  0.1952E-04
     -6.532  0.4976E-03  0.2531E-04
     -6.520  0.6305E-03  0.3265E-04
     -6.509  0.7945E-03  0.4189E-04
     -6.497  0.9956E-03  0.5348E-04
     -6.485  0.1241E-02  0.6792E-04
     -6.474  0.1538E-02  0.8581E-04
     -6.462  0.1895E-02  0.1079E-03
     -6.450  0.2323E-02  0.1349E-03
     -6.439  0.2832E-02  0.1678E-03
     -6.427  0.3432E-02  0.2078E-03
     -6.415  0.4138E-02  0.2559E-03
     -6.404  0.4961E-02  0.3137E-03
     -6.392  0.5916E-02  0.3825E-03
     -6.381  0.7015E-02  0.4641E-03
     -6.369  0.8274E-02  0.5604E-03
     -6.357  0.9705E-02  0.6733E-03
     -6.346  0.1132E-01  0.8051E-03
     -6.334  0.1314E-01  0.9579E-03
     -6.322  0.1517E-01  0.1134E-02
     -6.311  0.1741E-01  0.1337E-02
     -6.299  0.1989E-01  0.1568E-02
     -6.287  0.2259E-01  0.1831E-02
     -6.276  0.2554E-01  0.2128E-02
     -6.264  0.2872E-01  0.2463E-02
     -6.253  0.3215E-01  0.2837E-02
     -6.241  0.3580E-01  0.3253E-02
     -6.229  0.3969E-01  0.3715E-02
     -6.218  0.4379E-01  0.4225E-02
     -6.206  0.4809E-01  0.4784E-02
     -6.194  0.5260E-01  0.5396E-02
     -6.183  0.5728E-01  0.6063E-02
     -6.171  0.6213E-01  0.6786E-02
     -6.159  0.6713E-01  0.7567E-02
     -6.148  0.7226E-01  0.8407E-02
     -6.136  0.7752E-01  0.9310E-02
     -6.125  0.8289E-01  0.1027E-01
     -6.113  0.8836E-01  0.1130E-01
     -6.101  0.9392E-01  0.1240E-01
     -6.090  0.9956E-01  0.1355E-01
     -6.078  0.1053E+00  0.1478E-01
     -6.066  0.1111E+00  0.1607E-01
     -6.055  0.1169E+00  0.1743E-01
     -6.043  0.1228E+00  0.1886E-01
     -6.031  0.1287E+00  0.2036E-01
     -6.020  0.1347E+00  0.2192E-01
     -6.008  0.1407E+00  0.2356E-01
     -5.997  0.1467E+00  0.2527E-01
     -5.985  0.1527E+00  0.2704E-01
     -5.973  0.1586E+00  0.2889E-01
     -5.962  0.1645E+00  0.3080E-01
     -5.950  0.1703E+00  0.3279E-01
     -5.938  0.1760E+00  0.3483E-01
     -5.927  0.1815E+00  0.3694E-01
     -5.915  0.1868E+00  0.3912E-01
     -5.903  0.1918E+00  0.4135E-01
     -5.892  0.1966E+00  0.4364E-01
     -5.880  0.2011E+00  0.4598E-01
     -5.869  0.2053E+00  0.4837E-01
     -5.857  0.2092E+00  0.5080E-01
     -5.845  0.2127E+00  0.5328E-01
     -5.834  0.2159E+00  0.5579E-01
     -5.822  0.2188E+00  0.5833E-01
     -5.810  0.2214E+00  0.6091E-01
     -5.799  0.2237E+00  0.6351E-01
     -5.787  0.2259E+00  0.6614E-01
     -5.775  0.2279E+00  0.6879E-01
     -5.764  0.2299E+00  0.7147E-01
     -5.752  0.2319E+00  0.7417E-01
     -5.741  0.2340E+00  0.7689E-01
     -5.729  0.2362E+00  0.7964E-01
     -5.717  0.2387E+00  0.8242E-01
     -5.706  0.2414E+00  0.8522E-01
     -5.694  0.2445E+00  0.8807E-01
     -5.682  0.2480E+00  0.9096E-01
     -5.671  0.2518E+00  0.9389E-01
     -5.659  0.2561E+00  0.9687E-01
     -5.647  0.2608E+00  0.9990E-01
     -5.636  0.2659E+00  0.1030E+00
     -5.624  0.2713E+00  0.1062E+00
     -5.613  0.2770E+00  0.1094E+00
     -5.601  0.2829E+00  0.1127E+00
     -5.589  0.2890E+00  0.1160E+00
     -5.578  0.2951E+00  0.1195E+00
     -5.566  0.3012E+00  0.1230E+00
     -5.554  0.3072E+00  0.1265E+00
     -5.543  0.3129E+00  0.1302E+00
     -5.531  0.3184E+00  0.1339E+00
     -5.519  0.3236E+00  0.1377E+00
     -5.508  0.3283E+00  0.1415E+00
     -5.496  0.3326E+00  0.1453E+00
     -5.485  0.3363E+00  0.1493E+00
     -5.473  0.3395E+00  0.1532E+00
     -5.461  0.3422E+00  0.1572E+00
     -5.450  0.3443E+00  0.1612E+00
     -5.438  0.3459E+00  0.1652E+00
     -5.426  0.3469E+00  0.1693E+00
     -5.415  0.3475E+00  0.1733E+00
     -5.403  0.3476E+00  0.1773E+00
     -5.392  0.3473E+00  0.1814E+00
     -5.380  0.3466E+00  0.1854E+00
     -5.368  0.3456E+00  0.1894E+00
     -5.357  0.3445E+00  0.1934E+00
     -5.345  0.3431E+00  0.1974E+00
     -5.333  0.3417E+00  0.2014E+00
     -5.322  0.3403E+00  0.2054E+00
     -5.310  0.3389E+00  0.2093E+00
     -5.298  0.3377E+00  0.2132E+00
     -5.287  0.3368E+00  0.2172E+00
     -5.275  0.3363E+00  0.2211E+00
     -5.264  0.3361E+00  0.2250E+00
     -5.252  0.3365E+00  0.2289E+00
     -5.240  0.3375E+00  0.2328E+00
     -5.229  0.3392E+00  0.2368E+00
     -5.217  0.3416E+00  0.2408E+00
     -5.205  0.3449E+00  0.2448E+00
     -5.194  0.3489E+00  0.2488E+00
     -5.182  0.3538E+00  0.2529E+00
     -5.170  0.3595E+00  0.2571E+00
     -5.159  0.3660E+00  0.2614E+00
     -5.147  0.3732E+00  0.2657E+00
     -5.136  0.3811E+00  0.2702E+00
     -5.124  0.3896E+00  0.2747E+00
     -5.112  0.3985E+00  0.2793E+00
     -5.101  0.4078E+00  0.2841E+00
     -5.089  0.4172E+00  0.2889E+00
     -5.077  0.4267E+00  0.2939E+00
     -5.066  0.4360E+00  0.2990E+00
     -5.054  0.4451E+00  0.3042E+00
     -5.042  0.4537E+00  0.3094E+00
     -5.031  0.4618E+00  0.3148E+00
     -5.019  0.4691E+00  0.3203E+00
     -5.008  0.4757E+00  0.3258E+00
     -4.996  0.4814E+00  0.3314E+00
     -4.984  0.4862E+00  0.3371E+00
     -4.973  0.4900E+00  0.3428E+00
     -4.961  0.4929E+00  0.3485E+00
     -4.949  0.4947E+00  0.3542E+00
     -4.938  0.4957E+00  0.3600E+00
     -4.926  0.4958E+00  0.3658E+00
     -4.914  0.4951E+00  0.3715E+00
     -4.903  0.4937E+00  0.3773E+00
     -4.891  0.4916E+00  0.3830E+00
     -4.880  0.4889E+00  0.3887E+00
     -4.868  0.4858E+00  0.3944E+00
     -4.856  0.4823E+00  0.4000E+00
     -4.845  0.4784E+00  0.4055E+00
     -4.833  0.4744E+00  0.4111E+00
     -4.821  0.4702E+00  0.4165E+00
     -4.810  0.4659E+00  0.4219E+00
     -4.798  0.4616E+00  0.4273E+00
     -4.786  0.4574E+00  0.4326E+00
     -4.775  0.4534E+00  0.4379E+00
     -4.763  0.4496E+00  0.4431E+00
     -4.752  0.4460E+00  0.4483E+00
     -4.740  0.4429E+00  0.4535E+00
     -4.728  0.4403E+00  0.4586E+00
     -4.717  0.4383E+00  0.4637E+00
     -4.705  0.4369E+00  0.4688E+00
     -4.693  0.4364E+00  0.4739E+00
     -4.682  0.4367E+00  0.4790E+00
     -4.670  0.4381E+00  0.4841E+00
     -4.658  0.4406E+00  0.4892E+00
     -4.647  0.4442E+00  0.4943E+00
     -4.635  0.4491E+00  0.4996E+00
     -4.624  0.4552E+00  0.5049E+00
     -4.612  0.4627E+00  0.5103E+00
     -4.600  0.4714E+00  0.5157E+00
     -4.589  0.4814E+00  0.5213E+00
     -4.577  0.4926E+00  0.5271E+00
     -4.565  0.5049E+00  0.5329E+00
     -4.554  0.5181E+00  0.5390E+00
     -4.542  0.5321E+00  0.5452E+00
     -4.530  0.5468E+00  0.5515E+00
     -4.519  0.5619E+00  0.5581E+00
     -4.507  0.5773E+00  0.5648E+00
     -4.496  0.5926E+00  0.5717E+00
     -4.484  0.6077E+00  0.5787E+00
     -4.472  0.6224E+00  0.5860E+00
     -4.461  0.6364E+00  0.5934E+00
     -4.449  0.6495E+00  0.6010E+00
     -4.437  0.6616E+00  0.6087E+00
     -4.426  0.6725E+00  0.6165E+00
     -4.414  0.6820E+00  0.6244E+00
     -4.402  0.6901E+00  0.6324E+00
     -4.391  0.6966E+00  0.6405E+00
     -4.379  0.7015E+00  0.6487E+00
     -4.368  0.7049E+00  0.6569E+00
     -4.356  0.7067E+00  0.6651E+00
     -4.344  0.7070E+00  0.6734E+00
     -4.333  0.7058E+00  0.6816E+00
     -4.321  0.7033E+00  0.6898E+00
     -4.309  0.6996E+00  0.6979E+00
     -4.298  0.6948E+00  0.7060E+00
     -4.286  0.6890E+00  0.7140E+00
     -4.274  0.6825E+00  0.7219E+00
     -4.263  0.6754E+00  0.7298E+00
     -4.251  0.6679E+00  0.7376E+00
     -4.240  0.6602E+00  0.7453E+00
     -4.228  0.6524E+00  0.7528E+00
     -4.216  0.6448E+00  0.7604E+00
     -4.205  0.6375E+00  0.7678E+00
     -4.193  0.6308E+00  0.7751E+00
     -4.181  0.6247E+00  0.7824E+00
     -4.170  0.6195E+00  0.7896E+00
     -4.158  0.6154E+00  0.7967E+00
     -4.146  0.6125E+00  0.8039E+00
     -4.135  0.6110E+00  0.8110E+00
     -4.123  0.6110E+00  0.8181E+00
     -4.112  0.6126E+00  0.8252E+00
     -4.100  0.6160E+00  0.8324E+00
     -4.088  0.6213E+00  0.8396E+00
     -4.077  0.6285E+00  0.8469E+00
     -4.065  0.6377E+00  0.8544E+00
     -4.053  0.6489E+00  0.8619E+00
     -4.042  0.6620E+00  0.8696E+00
     -4.030  0.6770E+00  0.8775E+00
     -4.018  0.6938E+00  0.8856E+00
     -4.007  0.7122E+00  0.8938E+00
     -3.995  0.7321E+00  0.9024E+00
     -3.984  0.7532E+00  0.9111E+00
     -3.972  0.7752E+00  0.9201E+00
     -3.960  0.7979E+00  0.9294E+00
     -3.949  0.8208E+00  0.9390E+00
     -3.937  0.8436E+00  0.9488E+00
     -3.925  0.8660E+00  0.9589E+00
     -3.914  0.8876E+00  0.9692E+00
     -3.902  0.9079E+00  0.9798E+00
     -3.890  0.9267E+00  0.9905E+00
     -3.879  0.9436E+00  0.1002E+01
     -3.867  0.9583E+00  0.1013E+01
     -3.856  0.9705E+00  0.1024E+01
     -3.844  0.9802E+00  0.1035E+01
     -3.832  0.9871E+00  0.1047E+01
     -3.821  0.9911E+00  0.1058E+01
     -3.809  0.9923E+00  0.1070E+01
     -3.797  0.9907E+00  0.1081E+01
     -3.786  0.9864E+00  0.1093E+01
     -3.774  0.9795E+00  0.1104E+01
     -3.762  0.9703E+00  0.1116E+01
     -3.751  0.9591E+00  0.1127E+01
     -3.739  0.9460E+00  0.1138E+01
     -3.728  0.9313E+00  0.1149E+01
     -3.716  0.9154E+00  0.1159E+01
     -3.704  0.8985E+00  0.1170E+01
     -3.693  0.8809E+00  0.1180E+01
     -3.681  0.8629E+00  0.1190E+01
     -3.669  0.8448E+00  0.1200E+01
     -3.658  0.8267E+00  0.1209E+01
     -3.646  0.8089E+00  0.1219E+01
     -3.634  0.7916E+00  0.1228E+01
     -3.623  0.7749E+00  0.1237E+01
     -3.611  0.7590E+00  0.1246E+01
     -3.600  0.7441E+00  0.1255E+01
     -3.588  0.7302E+00  0.1263E+01
     -3.576  0.7175E+00  0.1271E+01
     -3.565  0.7061E+00  0.1280E+01
     -3.553  0.6961E+00  0.1288E+01
     -3.541  0.6875E+00  0.1296E+01
     -3.530  0.6805E+00  0.1304E+01
     -3.518  0.6752E+00  0.1312E+01
     -3.507  0.6716E+00  0.1319E+01
     -3.495  0.6697E+00  0.1327E+01
     -3.483  0.6696E+00  0.1335E+01
     -3.472  0.6713E+00  0.1343E+01
     -3.460  0.6747E+00  0.1351E+01
     -3.448  0.6797E+00  0.1359E+01
     -3.437  0.6863E+00  0.1366E+01
     -3.425  0.6942E+00  0.1375E+01
     -3.413  0.7032E+00  0.1383E+01
     -3.402  0.7133E+00  0.1391E+01
     -3.390  0.7239E+00  0.1399E+01
     -3.379  0.7349E+00  0.1408E+01
     -3.367  0.7460E+00  0.1417E+01
     -3.355  0.7567E+00  0.1426E+01
     -3.344  0.7668E+00  0.1434E+01
     -3.332  0.7759E+00  0.1443E+01
     -3.320  0.7838E+00  0.1453E+01
     -3.309  0.7900E+00  0.1462E+01
     -3.297  0.7944E+00  0.1471E+01
     -3.285  0.7967E+00  0.1480E+01
     -3.274  0.7968E+00  0.1490E+01
     -3.262  0.7946E+00  0.1499E+01
     -3.251  0.7900E+00  0.1508E+01
     -3.239  0.7830E+00  0.1517E+01
     -3.227  0.7738E+00  0.1526E+01
     -3.216  0.7625E+00  0.1535E+01
     -3.204  0.7492E+00  0.1544E+01
     -3.192  0.7343E+00  0.1552E+01
     -3.181  0.7178E+00  0.1561E+01
     -3.169  0.7003E+00  0.1569E+01
     -3.157  0.6819E+00  0.1577E+01
     -3.146  0.6630E+00  0.1584E+01
     -3.134  0.6440E+00  0.1592E+01
     -3.123  0.6252E+00  0.1599E+01
     -3.111  0.6069E+00  0.1606E+01
     -3.099  0.5894E+00  0.1613E+01
     -3.088  0.5730E+00  0.1620E+01
     -3.076  0.5579E+00  0.1626E+01
     -3.064  0.5443E+00  0.1633E+01
     -3.053  0.5323E+00  0.1639E+01
     -3.041  0.5221E+00  0.1645E+01
     -3.029  0.5139E+00  0.1651E+01
     -3.018  0.5075E+00  0.1657E+01
     -3.006  0.5031E+00  0.1663E+01
     -2.995  0.5006E+00  0.1668E+01
     -2.983  0.4999E+00  0.1674E+01
     -2.971  0.5009E+00  0.1680E+01
     -2.960  0.5035E+00  0.1686E+01
     -2.948  0.5076E+00  0.1692E+01
     -2.936  0.5129E+00  0.1698E+01
     -2.925  0.5193E+00  0.1704E+01
     -2.913  0.5265E+00  0.1710E+01
     -2.901  0.5342E+00  0.1716E+01
     -2.890  0.5423E+00  0.1722E+01
     -2.878  0.5504E+00  0.1729E+01
     -2.867  0.5583E+00  0.1735E+01
     -2.855  0.5657E+00  0.1742E+01
     -2.843  0.5724E+00  0.1749E+01
     -2.832  0.5781E+00  0.1755E+01
     -2.820  0.5825E+00  0.1762E+01
     -2.808  0.5856E+00  0.1769E+01
     -2.797  0.5870E+00  0.1776E+01
     -2.785  0.5868E+00  0.1783E+01
     -2.773  0.5847E+00  0.1789E+01
     -2.762  0.5807E+00  0.1796E+01
     -2.750  0.5749E+00  0.1803E+01
     -2.739  0.5672E+00  0.1809E+01
     -2.727  0.5577E+00  0.1816E+01
     -2.715  0.5466E+00  0.1822E+01
     -2.704  0.5339E+00  0.1829E+01
     -2.692  0.5199E+00  0.1835E+01
     -2.680  0.5047E+00  0.1840E+01
     -2.669  0.4886E+00  0.1846E+01
     -2.657  0.4718E+00  0.1852E+01
     -2.645  0.4546E+00  0.1857E+01
     -2.634  0.4372E+00  0.1862E+01
     -2.622  0.4199E+00  0.1867E+01
     -2.611  0.4027E+00  0.1872E+01
     -2.599  0.3861E+00  0.1876E+01
     -2.587  0.3702E+00  0.1880E+01
     -2.576  0.3550E+00  0.1884E+01
     -2.564  0.3409E+00  0.1888E+01
     -2.552  0.3278E+00  0.1892E+01
     -2.541  0.3159E+00  0.1896E+01
     -2.529  0.3053E+00  0.1900E+01
     -2.517  0.2959E+00  0.1903E+01
     -2.506  0.2877E+00  0.1906E+01
     -2.494  0.2808E+00  0.1910E+01
     -2.483  0.2751E+00  0.1913E+01
     -2.471  0.2704E+00  0.1916E+01
     -2.459  0.2668E+00  0.1919E+01
     -2.448  0.2641E+00  0.1922E+01
     -2.436  0.2622E+00  0.1925E+01
     -2.424  0.2610E+00  0.1928E+01
     -2.413  0.2603E+00  0.1931E+01
     -2.401  0.2601E+00  0.1934E+01
     -2.389  0.2601E+00  0.1937E+01
     -2.378  0.2604E+00  0.1940E+01
     -2.366  0.2606E+00  0.1943E+01
     -2.355  0.2608E+00  0.1946E+01
     -2.343  0.2608E+00  0.1949E+01
     -2.331  0.2606E+00  0.1952E+01
     -2.320  0.2600E+00  0.1955E+01
     -2.308  0.2590E+00  0.1958E+01
     -2.296  0.2576E+00  0.1961E+01
     -2.285  0.2557E+00  0.1964E+01
     -2.273  0.2533E+00  0.1967E+01
     -2.261  0.2505E+00  0.1970E+01
     -2.250  0.2471E+00  0.1973E+01
     -2.238  0.2433E+00  0.1976E+01
     -2.227  0.2391E+00  0.1979E+01
     -2.215  0.2346E+00  0.1982E+01
     -2.203  0.2297E+00  0.1984E+01
     -2.192  0.2247E+00  0.1987E+01
     -2.180  0.2194E+00  0.1989E+01
     -2.168  0.2141E+00  0.1992E+01
     -2.157  0.2088E+00  0.1994E+01
     -2.145  0.2036E+00  0.1997E+01
     -2.133  0.1985E+00  0.1999E+01
     -2.122  0.1935E+00  0.2001E+01
     -2.110  0.1889E+00  0.2003E+01
     -2.099  0.1845E+00  0.2006E+01
     -2.087  0.1805E+00  0.2008E+01
     -2.075  0.1768E+00  0.2010E+01
     -2.064  0.1736E+00  0.2012E+01
     -2.052  0.1707E+00  0.2014E+01
     -2.040  0.1682E+00  0.2016E+01
     -2.029  0.1662E+00  0.2018E+01
     -2.017  0.1645E+00  0.2020E+01
     -2.005  0.1632E+00  0.2021E+01
     -1.994  0.1622E+00  0.2023E+01
     -1.982  0.1615E+00  0.2025E+01
     -1.971  0.1612E+00  0.2027E+01
     -1.959  0.1611E+00  0.2029E+01
     -1.947  0.1612E+00  0.2031E+01
     -1.936  0.1616E+00  0.2033E+01
     -1.924  0.1622E+00  0.2035E+01
     -1.912  0.1631E+00  0.2036E+01
     -1.901  0.1643E+00  0.2038E+01
     -1.889  0.1657E+00  0.2040E+01
     -1.877  0.1675E+00  0.2042E+01
     -1.866  0.1696E+00  0.2044E+01
     -1.854  0.1722E+00  0.2046E+01
     -1.843  0.1752E+00  0.2048E+01
     -1.831  0.1789E+00  0.2050E+01
     -1.819  0.1831E+00  0.2052E+01
     -1.808  0.1882E+00  0.2055E+01
     -1.796  0.1940E+00  0.2057E+01
     -1.784  0.2007E+00  0.2059E+01
     -1.773  0.2083E+00  0.2062E+01
     -1.761  0.2170E+00  0.2064E+01
     -1.749  0.2268E+00  0.2067E+01
     -1.738  0.2377E+00  0.2070E+01
     -1.726  0.2498E+00  0.2073E+01
     -1.715  0.2631E+00  0.2076E+01
     -1.703  0.2776E+00  0.2079E+01
     -1.691  0.2933E+00  0.2082E+01
     -1.680  0.3101E+00  0.2086E+01
     -1.668  0.3280E+00  0.2090E+01
     -1.656  0.3468E+00  0.2094E+01
     -1.645  0.3665E+00  0.2098E+01
     -1.633  0.3870E+00  0.2102E+01
     -1.622  0.4081E+00  0.2107E+01
     -1.610  0.4295E+00  0.2112E+01
     -1.598  0.4512E+00  0.2117E+01
     -1.587  0.4728E+00  0.2123E+01
     -1.575  0.4943E+00  0.2129E+01
     -1.563  0.5153E+00  0.2135E+01
     -1.552  0.5358E+00  0.2141E+01
     -1.540  0.5554E+00  0.2147E+01
     -1.528  0.5741E+00  0.2154E+01
     -1.517  0.5916E+00  0.2161E+01
     -1.505  0.6079E+00  0.2168E+01
     -1.494  0.6230E+00  0.2175E+01
     -1.482  0.6367E+00  0.2183E+01
     -1.470  0.6492E+00  0.2190E+01
     -1.459  0.6604E+00  0.2198E+01
     -1.447  0.6706E+00  0.2206E+01
     -1.435  0.6799E+00  0.2214E+01
     -1.424  0.6885E+00  0.2222E+01
     -1.412  0.6966E+00  0.2230E+01
     -1.400  0.7046E+00  0.2238E+01
     -1.389  0.7127E+00  0.2246E+01
     -1.377  0.7212E+00  0.2255E+01
     -1.366  0.7305E+00  0.2263E+01
     -1.354  0.7407E+00  0.2272E+01
     -1.342  0.7523E+00  0.2281E+01
     -1.331  0.7653E+00  0.2289E+01
     -1.319  0.7799E+00  0.2299E+01
     -1.307  0.7964E+00  0.2308E+01
     -1.296  0.8146E+00  0.2317E+01
     -1.284  0.8346E+00  0.2327E+01
     -1.272  0.8564E+00  0.2337E+01
     -1.261  0.8797E+00  0.2347E+01
     -1.249  0.9044E+00  0.2358E+01
     -1.238  0.9302E+00  0.2369E+01
     -1.226  0.9567E+00  0.2380E+01
     -1.214  0.9836E+00  0.2391E+01
     -1.203  0.1011E+01  0.2403E+01
     -1.191  0.1037E+01  0.2415E+01
     -1.179  0.1063E+01  0.2427E+01
     -1.168  0.1087E+01  0.2440E+01
     -1.156  0.1111E+01  0.2453E+01
     -1.144  0.1132E+01  0.2466E+01
     -1.133  0.1151E+01  0.2479E+01
     -1.121  0.1167E+01  0.2493E+01
     -1.110  0.1181E+01  0.2507E+01
     -1.098  0.1192E+01  0.2521E+01
     -1.086  0.1200E+01  0.2535E+01
     -1.075  0.1206E+01  0.2549E+01
     -1.063  0.1208E+01  0.2563E+01
     -1.051  0.1208E+01  0.2577E+01
     -1.040  0.1205E+01  0.2591E+01
     -1.028  0.1200E+01  0.2605E+01
     -1.016  0.1192E+01  0.2619E+01
     -1.005  0.1183E+01  0.2632E+01
     -0.993  0.1171E+01  0.2646E+01
     -0.982  0.1158E+01  0.2659E+01
     -0.970  0.1144E+01  0.2673E+01
     -0.958  0.1128E+01  0.2686E+01
     -0.947  0.1111E+01  0.2699E+01
     -0.935  0.1094E+01  0.2712E+01
     -0.923  0.1075E+01  0.2724E+01
     -0.912  0.1057E+01  0.2736E+01
     -0.900  0.1037E+01  0.2748E+01
     -0.888  0.1017E+01  0.2760E+01
     -0.877  0.9965E+00  0.2772E+01
     -0.865  0.9756E+00  0.2783E+01
     -0.854  0.9544E+00  0.2794E+01
     -0.842  0.9327E+00  0.2805E+01
     -0.830  0.9107E+00  0.2816E+01
     -0.819  0.8884E+00  0.2826E+01
     -0.807  0.8659E+00  0.2836E+01
     -0.795  0.8432E+00  0.2846E+01
     -0.784  0.8206E+00  0.2856E+01
     -0.772  0.7981E+00  0.2865E+01
     -0.760  0.7760E+00  0.2874E+01
     -0.749  0.7544E+00  0.2883E+01
     -0.737  0.7335E+00  0.2891E+01
     -0.726  0.7135E+00  0.2899E+01
     -0.714  0.6948E+00  0.2908E+01
     -0.702  0.6775E+00  0.2915E+01
     -0.691  0.6619E+00  0.2923E+01
     -0.679  0.6481E+00  0.2931E+01
     -0.667  0.6362E+00  0.2938E+01
     -0.656  0.6264E+00  0.2945E+01
     -0.644  0.6188E+00  0.2953E+01
     -0.632  0.6133E+00  0.2960E+01
     -0.621  0.6099E+00  0.2967E+01
     -0.609  0.6084E+00  0.2974E+01
     -0.598  0.6087E+00  0.2981E+01
     -0.586  0.6106E+00  0.2988E+01
     -0.574  0.6138E+00  0.2995E+01
     -0.563  0.6180E+00  0.3002E+01
     -0.551  0.6228E+00  0.3010E+01
     -0.539  0.6279E+00  0.3017E+01
     -0.528  0.6329E+00  0.3024E+01
     -0.516  0.6376E+00  0.3032E+01
     -0.504  0.6416E+00  0.3039E+01
     -0.493  0.6445E+00  0.3047E+01
     -0.481  0.6462E+00  0.3054E+01
     -0.470  0.6464E+00  0.3062E+01
     -0.458  0.6450E+00  0.3069E+01
     -0.446  0.6420E+00  0.3077E+01
     -0.435  0.6373E+00  0.3084E+01
     -0.423  0.6310E+00  0.3091E+01
     -0.411  0.6231E+00  0.3099E+01
     -0.400  0.6138E+00  0.3106E+01
     -0.388  0.6033E+00  0.3113E+01
     -0.376  0.5919E+00  0.3120E+01
     -0.365  0.5797E+00  0.3127E+01
     -0.353  0.5671E+00  0.3133E+01
     -0.342  0.5543E+00  0.3140E+01
     -0.330  0.5416E+00  0.3146E+01
     -0.318  0.5292E+00  0.3152E+01
     -0.307  0.5174E+00  0.3158E+01
     -0.295  0.5064E+00  0.3164E+01
     -0.283  0.4964E+00  0.3170E+01
     -0.272  0.4874E+00  0.3175E+01
     -0.260  0.4795E+00  0.3181E+01
     -0.248  0.4728E+00  0.3186E+01
     -0.237  0.4672E+00  0.3192E+01
     -0.225  0.4628E+00  0.3197E+01
     -0.214  0.4593E+00  0.3203E+01
     -0.202  0.4567E+00  0.3208E+01
     -0.190  0.4549E+00  0.3213E+01
     -0.179  0.4536E+00  0.3219E+01
     -0.167  0.4527E+00  0.3224E+01
     -0.155  0.4520E+00  0.3229E+01
     -0.144  0.4513E+00  0.3234E+01
     -0.132  0.4505E+00  0.3240E+01
     -0.120  0.4495E+00  0.3245E+01
     -0.109  0.4481E+00  0.3250E+01
     -0.097  0.4462E+00  0.3255E+01
     -0.086  0.4438E+00  0.3260E+01
     -0.074  0.4408E+00  0.3265E+01
     -0.062  0.4374E+00  0.3271E+01
     -0.051  0.4335E+00  0.3276E+01
     -0.039  0.4292E+00  0.3281E+01
     -0.027  0.4247E+00  0.3286E+01
     -0.016  0.4200E+00  0.3290E+01
     -0.004  0.4152E+00  0.3295E+01
      0.008  0.4106E+00  0.3300E+01
      0.019  0.4063E+00  0.3305E+01
      0.031  0.4023E+00  0.3309E+01
      0.042  0.3989E+00  0.3314E+01
      0.054  0.3960E+00  0.3319E+01
      0.066  0.3938E+00  0.3323E+01
      0.077  0.3923E+00  0.3328E+01
      0.089  0.3915E+00  0.3332E+01
      0.101  0.3915E+00  0.3337E+01
      0.112  0.3921E+00  0.3341E+01
      0.124  0.3934E+00  0.3346E+01
      0.136  0.3951E+00  0.3351E+01
      0.147  0.3972E+00  0.3355E+01
      0.159  0.3996E+00  0.3360E+01
      0.170  0.4022E+00  0.3365E+01
      0.182  0.4047E+00  0.3369E+01
      0.194  0.4071E+00  0.3374E+01
      0.205  0.4091E+00  0.3379E+01
      0.217  0.4108E+00  0.3384E+01
      0.229  0.4119E+00  0.3388E+01
      0.240  0.4123E+00  0.3393E+01
      0.252  0.4121E+00  0.3398E+01
      0.263  0.4110E+00  0.3403E+01
      0.275  0.4091E+00  0.3408E+01
      0.287  0.4064E+00  0.3412E+01
      0.298  0.4029E+00  0.3417E+01
      0.310  0.3986E+00  0.3422E+01
      0.322  0.3935E+00  0.3426E+01
      0.333  0.3878E+00  0.3431E+01
      0.345  0.3815E+00  0.3435E+01
      0.357  0.3748E+00  0.3439E+01
      0.368  0.3676E+00  0.3444E+01
      0.380  0.3603E+00  0.3448E+01
      0.391  0.3528E+00  0.3452E+01
      0.403  0.3454E+00  0.3456E+01
      0.415  0.3382E+00  0.3460E+01
      0.426  0.3312E+00  0.3464E+01
      0.438  0.3246E+00  0.3468E+01
      0.450  0.3186E+00  0.3471E+01
      0.461  0.3131E+00  0.3475E+01
      0.473  0.3084E+00  0.3479E+01
      0.485  0.3045E+00  0.3482E+01
      0.496  0.3014E+00  0.3486E+01
      0.508  0.2991E+00  0.3489E+01
      0.519  0.2977E+00  0.3493E+01
      0.531  0.2971E+00  0.3496E+01
      0.543  0.2974E+00  0.3499E+01
      0.554  0.2984E+00  0.3503E+01
      0.566  0.3000E+00  0.3506E+01
      0.578  0.3023E+00  0.3510E+01
      0.589  0.3049E+00  0.3514E+01
      0.601  0.3079E+00  0.3517E+01
      0.613  0.3110E+00  0.3521E+01
      0.624  0.3141E+00  0.3524E+01
      0.636  0.3171E+00  0.3528E+01
      0.647  0.3197E+00  0.3532E+01
      0.659  0.3217E+00  0.3536E+01
      0.671  0.3231E+00  0.3539E+01
      0.682  0.3237E+00  0.3543E+01
      0.694  0.3234E+00  0.3547E+01
      0.706  0.3220E+00  0.3551E+01
      0.717  0.3195E+00  0.3554E+01
      0.729  0.3158E+00  0.3558E+01
      0.741  0.3108E+00  0.3562E+01
      0.752  0.3047E+00  0.3565E+01
      0.764  0.2975E+00  0.3569E+01