    2    2    1    1
  0.2072475E+02  0.3884586E-09  0.3884587E-09  0.3884586E-09  0.5000000E-15
  1.000000000000000E-004
  CAR 
 unknown system                          
    8   56   36
 
  0.0000000E+00  0.0000000E+00  0.0000000E+00  0.7513148E-03
   1       -6.191731
   2        5.459086
   3        5.459086
   4        5.459088
   5        8.074297
   6        8.074301
   7        8.074302
   8        8.530008
   9       13.214136
  10       13.214138
  11       13.348617
  12       16.655614
  13       16.655616
  14       16.655618
  15       20.750711
  16       28.166432
  17       28.166434
  18       28.166436
  19       29.268767
  20       29.268769
  21       30.475121
  22       30.475129
  23       30.475130
  24       34.221518
  25       34.221520
  26       34.221527
  27       39.664615
  28       39.664623
  29       39.664624
  30       43.080151
  31       43.392737
  32       43.392741
  33       45.341750
  34       45.341753
  35       46.614266
  36       46.614270
 
  0.9090909E-01  0.0000000E+00  0.0000000E+00  0.6010518E-02
   1       -6.086873
   2        4.496157
   3        5.302142
   4        5.302144
   5        8.037757
   6        8.308326
   7        8.308330
   8        9.359207
   9       12.915642
  10       12.915643
  11       13.788111
  12       16.300388
  13       17.300204
  14       17.300205
  15       21.434236
  16       27.015883
  17       27.015889
  18       27.044965
  19       28.921247
  20       28.921251
  21       30.913300
  22       30.913306
  23       31.448552
  24       34.317549
  25       35.479125
  26       35.479134
  27       38.281544
  28       39.379527
  29       39.379535
  30       42.381075
  31       42.381080
  32       43.434718
  33       44.063013
  34       44.063017
  35       46.579467
  36       46.687731
 
  0.1818182E+00  0.0000000E+00  0.0000000E+00  0.6010518E-02
   1       -5.776520
   2        2.864757
   3        4.977789
   4        4.977791
   5        7.709068
   6        8.766741
   7        8.766746
   8       10.943268
   9       12.568570
  10       12.568570
  11       14.530497
  12       16.139497
  13       18.748222
  14       18.748224
  15       22.877445
  16       24.680661
  17       24.680667
  18       25.351158
  19       28.982984
  20       28.982989
  21       31.226428
  22       31.226434
  23       32.786706
  24       34.596624
  25       35.619473
  26       37.573479
  27       37.573484
  28       38.691724
  29       38.691732
  30       39.989365
  31       39.989369
  32       42.657337
  33       42.657339
  34       43.732776
  35       45.238219
  36       45.602842
 
  0.2727273E+00 -0.1387779E-16  0.0000000E+00  0.6010518E-02
   1       -5.277414
   2        1.253959
   3        4.665869
   4        4.665872
   5        7.361946
   6        9.024839
   7        9.024844
   8       12.509775
   9       12.830583
  10       12.830585
  11       14.337514
  12       17.607740
  13       20.215005
  14       20.215006
  15       22.682041
  16       22.682046
  17       22.765449
  18       25.666138
  19       29.115421
  20       29.115426
  21       31.467830
  22       31.467836
  23       32.144184
  24       34.387784
  25       35.025270
  26       36.086128
  27       36.086133
  28       38.111128
  29       38.111137
  30       39.180162
  31       39.180165
  32       42.386717
  33       43.381761
  34       43.437501
  35       43.437508
  36       43.738133
 
  0.3636364E+00  0.0000000E+00  0.0000000E+00  0.6010518E-02
   1       -4.640930
   2       -0.155803
   3        4.440907
   4        4.440910
   5        7.102875
   6        8.986152
   7        8.986156
   8       13.325050
   9       13.842000
  10       13.842003
  11       14.734294
  12       19.179278
  13       19.266655
  14       19.266659
  15       21.731542
  16       23.515509
  17       23.515511
  18       27.879821
  19       28.994723
  20       28.994729
  21       29.213472
  22       31.627001
  23       31.627006
  24       33.534268
  25       33.534271
  26       34.778152
  27       35.519044
  28       37.467803
  29       37.467809
  30       38.488137
  31       38.488142
  32       39.757819
  33       42.282353
  34       42.435682
  35       45.459626
  36       45.459634
 
  0.4545455E+00 -0.2775558E-16  0.0000000E+00  0.6010518E-02
   1       -4.057726
   2       -1.132919
   3        4.325708
   4        4.325711
   5        6.967957
   6        8.890455
   7        8.890459
   8       13.236756
   9       15.331049
  10       15.331053
  11       16.147284
  12       17.318118
  13       17.318122
  14       18.429518
  15       23.401459
  16       25.736372
  17       25.736376
  18       26.204947
  19       27.878858
  20       27.878863
  21       30.255117
  22       31.500117
  23       31.500120
  24       32.293693
  25       32.293698
  26       33.784156
  27       35.891318
  28       37.193196
  29       37.193202
  30       37.883152
  31       37.883158
  32       38.673364
  33       41.428183
  34       41.655525
  35       45.526624
  36       45.526631
 
  0.9090909E-01  0.9090909E-01  0.0000000E+00  0.4507889E-02
   1       -6.051708
   2        4.647387
   3        4.997104
   4        4.997104
   5        7.764911
   6        8.708210
   7        8.708213
   8        9.277616
   9       12.365875
  10       13.370433
  11       13.936459
  12       16.901008
  13       16.901009
  14       17.251521
  15       21.724173
  16       26.559187
  17       26.559188
  18       27.851233
  19       28.221890
  20       28.351511
  21       31.120630
  22       31.348564
  23       31.348573
  24       35.269480
  25       35.269483
  26       35.710827
  27       38.701286
  28       38.701293
  29       38.787536
  30       41.426468
  31       42.830569
  32       43.065398
  33       44.016066
  34       45.187592
  35       46.341479
  36       46.345179
 
  0.1818182E+00  0.9090909E-01  0.0000000E+00  0.1803156E-01
   1       -5.809064
   2        3.337064
   3        4.618214
   4        4.782020
   5        7.789072
   6        8.712818
   7        9.280028
   8       10.303672
   9       12.076481
  10       13.329776
  11       14.734050
  12       16.508978
  13       17.728027
  14       18.615169
  15       22.997052
  16       24.548593
  17       24.871209
  18       27.136295
  19       27.483465
  20       28.219890
  21       31.161963
  22       31.709283
  23       32.615699
  24       35.639724
  25       36.299888
  26       36.906534
  27       37.592296
  28       37.933982
  29       38.551028
  30       39.567226
  31       41.352898
  32       41.654742
  33       43.795752
  34       44.219293
  35       44.976490
  36       45.318725
 
  0.2727273E+00  0.9090909E-01  0.0000000E+00  0.1803156E-01
   1       -5.370290
   2        1.767120
   3        4.309818
   4        4.422462
   5        7.870726
   6        8.739356
   7        9.634532
   8       10.816992
   9       13.047807
  10       13.503116
  11       14.964518
  12       17.189002
  13       19.143090
  14       20.326333
  15       22.303481
  16       22.792068
  17       24.228289
  18       26.039675
  19       27.617159
  20       28.412015
  21       31.107980
  22       31.999728
  23       32.792808
  24       34.571050
  25       35.913377
  26       36.483654
  27       36.598589
  28       37.844122
  29       38.146029
  30       38.679854
  31       40.111984
  32       41.397765
  33       43.089444
  34       43.662496
  35       43.882312
  36       44.599719
 
  0.3636364E+00  0.9090909E-01  0.0000000E+00  0.1803156E-01
   1       -4.769823
   2        0.306952
   3        4.053540
   4        4.127129
   5        7.699058
   6        8.812740
   7        9.590278
   8       11.573343
   9       14.294261
  10       14.372839
  11       14.876431
  12       18.712022
  13       18.974943
  14       20.417093
  15       22.158422
  16       22.410989
  17       23.587934
  18       27.605308
  19       27.781877
  20       28.695016
  21       30.051359
  22       30.646669
  23       32.260147
  24       34.142028
  25       34.764802
  26       35.229367
  27       35.884685
  28       36.754321
  29       36.946502
  30       38.335026
  31       39.516828
  32       40.851924
  33       42.733970
  34       43.254866
  35       43.702371
  36       44.100606
 
  0.4545455E+00  0.9090909E-01  0.0000000E+00  0.1803156E-01
   1       -4.127370
   2       -0.843430
   3        3.766059
   4        4.085201
   5        7.554102
   6        8.788597
   7        9.373777
   8       12.789183
   9       14.229061
  10       15.745182
  11       16.351421
  12       17.092504
  13       17.836069
  14       20.082881
  15       22.621448
  16       24.229316
  17       25.484120
  18       26.803076
  19       27.713562
  20       28.205842
  21       29.980112
  22       30.052968
  23       32.140250
  24       32.460705
  25       33.096609
  26       34.777935
  27       35.521710
  28       36.009707
  29       37.049927
  30       37.969903
  31       38.701879
  32       39.406778
  33       42.144663
  34       42.925533
  35       43.198030
  36       45.656973
 
 -0.4545455E+00  0.9090909E-01  0.0000000E+00  0.1803156E-01
   1       -3.871318
   2       -1.227285
   3        3.596313
   4        4.180445
   5        7.523600
   6        8.847081
   7        9.198870
   8       13.520411
   9       14.699827
  10       15.044788
  11       16.295535
  12       17.669985
  13       17.952238
  14       18.704756
  15       24.015649
  16       25.133771
  17       25.907323
  18       26.462191
  19       26.972495
  20       27.342962
  21       30.320298
  22       30.774349
  23       31.197459
  24       32.626257
  25       32.661145
  26       34.009816
  27       35.495365
  28       35.631417
  29       37.260572
  30       38.147390
  31       38.244129
  32       39.228229
  33       41.919186
  34       42.632128
  35       43.423159
  36       45.286041
 
 -0.3636364E+00  0.9090909E-01  0.0000000E+00  0.1803156E-01
   1       -4.331551
   2       -0.509200
   3        3.564862
   4        4.397526
   5        7.620097
   6        9.029364
   7        9.120606
   8       13.160673
   9       13.447078
  10       14.595232
  11       16.503464
  12       17.207707
  13       19.625410
  14       19.744445
  15       21.884409
  16       23.411376
  17       25.076050
  18       28.003605
  19       28.006423
  20       28.079314
  21       29.350503
  22       30.369896
  23       32.217544
  24       33.004462
  25       33.026135
  26       34.809223
  27       35.989836
  28       36.011644
  29       37.280057
  30       38.318308
  31       38.849286
  32       39.603009
  33       42.233602
  34       43.027566
  35       43.949190
  36       45.153947
 
 -0.2727273E+00  0.9090909E-01  0.0000000E+00  0.1803156E-01
   1       -4.985350
   2        0.773946
   3        3.686778
   4        4.708243
   5        7.833312
   6        9.043269
   7        9.221491
   8       12.087739
   9       12.305669
  10       14.784060
  11       14.890360
  12       18.071306
  13       19.392760
  14       21.213429
  15       21.228738
  16       22.783086
  17       23.599615
  18       26.823810
  19       27.906105
  20       28.393365
  21       30.880046
  22       31.371556
  23       32.057800
  24       34.376419
  25       34.914389
  26       35.578522
  27       36.290886
  28       36.630080
  29       37.589556
  30       38.787842
  31       39.564175
  32       41.786717
  33       42.476225
  34       43.591330
  35       43.665779
  36       44.721384
 
 -0.1818182E+00  0.9090909E-01  0.0000000E+00  0.1803156E-01
   1       -5.538103
   2        2.275007
   3        3.979394
   4        5.057214
   5        8.129547
   6        8.755953
   7        9.075207
   8       11.183027
   9       11.911450
  10       13.584950
  11       15.077992
  12       16.690068
  13       18.463838
  14       20.228656
  15       22.320382
  16       23.617122
  17       24.959106
  18       25.608635
  19       27.583538
  20       28.295851
  21       31.431361
  22       31.544535
  23       33.628697
  24       34.614407
  25       35.449286
  26       36.787844
  27       37.499746
  28       38.001086
  29       38.548922
  30       39.240762
  31       40.090405
  32       40.903000
  33       43.228722
  34       44.101965
  35       44.137503
  36       44.870758
 
 -0.9090909E-01  0.9090909E-01  0.0000000E+00  0.9015778E-02
   1       -5.913202
   2        3.701292
   3        4.527011
   4        5.320205
   5        8.363507
   6        8.366020
   7        8.497539
   8       10.255368
   9       12.246653
  10       13.069070
  11       14.417738
  12       16.498067
  13       17.189874
  14       18.582214
  15       22.391993
  16       24.686291
  17       26.572658
  18       26.984887
  19       27.589830
  20       28.485634
  21       31.186529
  22       31.341354
  23       32.514345
  24       35.200241
  25       35.969650
  26       36.957522
  27       37.364413
  28       37.961548
  29       39.467887
  30       40.481597
  31       41.838679
  32       41.986992
  33       43.389785
  34       44.222226
  35       45.247949
  36       46.134713
 
  0.1818182E+00  0.1818182E+00  0.0000000E+00  0.4507889E-02
   1       -5.634309
   2        3.167265
   3        4.203327
   4        4.203328
   5        7.137423
   6        9.552773
   7       10.008688
   8       10.008689
   9       12.099839
  10       13.838866
  11       15.377703
  12       17.616104
  13       17.616106
  14       18.220516
  15       24.102438
  16       24.176118
  17       24.176119
  18       25.412230
  19       26.565423
  20       28.985291
  21       31.553471
  22       32.023597
  23       32.023607
  24       36.340744
  25       36.340751
  26       36.576744
  27       37.893102
  28       37.893103
  29       37.930444
  30       38.146826
  31       40.709350
  32       42.363612
  33       43.656959
  34       43.656967
  35       45.241615
  36       45.260978
 
  0.2727273E+00  0.1818182E+00  0.0000000E+00  0.1803156E-01
   1       -5.259378
   2        2.048716
   3        3.795961
   4        3.872080
   5        7.183672
   6        9.183803
   7       10.291595
   8       10.582518
   9       13.248405
  10       14.149125
  11       16.134303
  12       17.566914
  13       18.489548
  14       19.749901
  15       22.236632
  16       22.661484
  17       25.141196
  18       25.389678
  19       26.146540
  20       28.731550
  21       31.120395
  22       32.201516
  23       32.611710
  24       34.422815
  25       35.095838
  26       35.650105
  27       36.660581
  28       38.136121
  29       38.700023
  30       39.782028
  31       40.399722
  32       40.943799
  33       42.518995
  34       42.728281
  35       45.027173
  36       45.299093
 
  0.3636364E+00  0.1818182E+00  0.0000000E+00  0.1803156E-01
   1       -4.707232
   2        0.725598
   3        3.279917
   4        3.680617
   5        7.414033
   6        9.533576
   7       10.091580
   8       10.681360
   9       14.929500
  10       14.947041
  11       15.919515
  12       18.600409
  13       18.735585
  14       20.333197
  15       21.327688
  16       22.564765
  17       24.741732
  18       25.393411
  19       26.900387
  20       29.052878
  21       29.821264
  22       31.015312
  23       32.164206
  24       33.695238
  25       34.287921
  26       35.218251
  27       36.229885
  28       36.815945
  29       37.754814
  30       39.107809
  31       40.234536
  32       41.575273
  33       42.078665
  34       42.223928
  35       43.357995
  36       44.818498
 
  0.4545455E+00  0.1818182E+00  0.0000000E+00  0.1803156E-01
   1       -4.052499
   2       -0.466719
   3        2.818162
   4        3.647294
   5        7.454244
   6        9.855228
   7       10.451429
   8       10.725817
   9       15.318399
  10       16.215843
  11       16.756844
  12       17.000585
  13       18.017366
  14       21.353541
  15       22.990267
  16       23.051900
  17       24.670286
  18       25.698568
  19       26.537155
  20       28.261274
  21       29.132842
  22       30.875821
  23       31.840186
  24       32.515545
  25       33.927555
  26       34.151155
  27       35.325639
  28       35.832981
  29       37.172096
  30       38.939983
  31       39.790314
  32       40.339226
  33       41.694446
  34       41.784051
  35       43.965726
  36       45.005473
 
 -0.4545455E+00  0.1818182E+00  0.0000000E+00  0.1803156E-01
   1       -3.592556
   2       -1.145708
   3        2.494872
   4        3.771419
   5        7.546960
   6        9.734471
   7       10.176221
   8       12.310351
   9       14.454620
  10       14.919185
  11       16.864991
  12       18.089784
  13       18.657856
  14       20.865988
  15       23.925366
  16       24.116993
  17       24.819850
  18       25.979276
  19       26.236648
  20       26.902376
  21       29.725553
  22       31.101479
  23       31.605821
  24       31.732856
  25       32.568223
  26       34.254543
  27       34.452841
  28       35.691817
  29       36.752025
  30       38.634970
  31       39.842218
  32       40.264266
  33       41.536470
  34       41.555726
  35       43.670759
  36       45.368210
 
 -0.3636364E+00  0.1818182E+00  0.0000000E+00  0.1803156E-01
   1       -3.864240
   2       -0.752310
   3        2.350941
   4        4.037122
   5        7.782888
   6        9.730505
   7        9.958126
   8       13.087783
   9       13.237687
  10       14.034568
  11       16.763735
  12       19.023197
  13       20.035284
  14       20.196848
  15       21.659980
  16       23.995819
  17       25.034340
  18       26.374566
  19       27.223745
  20       27.613702
  21       29.292672
  22       31.137312
  23       31.981167
  24       32.053073
  25       32.364091
  26       33.194301
  27       34.371879
  28       36.808386
  29       37.751349
  30       38.684437
  31       39.805753
  32       40.389663
  33       41.549127
  34       41.866473
  35       43.524882
  36       45.516575
 
 -0.2727273E+00  0.1818182E+00  0.0000000E+00  0.1803156E-01
   1       -4.509404
   2        0.321081
   3        2.438110
   4        4.407321
   5        8.126853
   6        9.711390
   7        9.782599
   8       11.721854
   9       12.030264
  10       15.466653
  11       17.086125
  12       17.445614
  13       19.215252
  14       21.227747
  15       21.866817
  16       22.724072
  17       24.537753
  18       26.423731
  19       26.877671
  20       28.874074
  21       29.596737
  22       30.749866
  23       32.286093
  24       33.109593
  25       33.176894
  26       34.615271
  27       35.242678
  28       37.267347
  29       38.412594
  30       38.993271
  31       39.720823
  32       41.682687
  33       41.875243
  34       42.721765
  35       43.387278
  36       43.590973
 
 -0.1818182E+00  0.1818182E+00  0.0000000E+00  0.9015778E-02
   1       -5.104850
   2        1.472905
   3        2.912389
   4        4.802137
   5        8.427807
   6        9.226612
   7        9.470772
   8       11.067824
   9       11.620597
  10       15.254496
  11       15.978040
  12       17.076502
  13       19.043237
  14       20.291757
  15       21.761558
  16       23.671726
  17       25.391616
  18       25.506314
  19       26.835302
  20       27.315510
  21       31.337831
  22       31.563267
  23       32.902317
  24       33.995418
  25       35.171879
  26       35.557927
  27       36.059747
  28       38.418445
  29       38.832204
  30       39.118672
  31       39.423566
  32       40.285173
  33       42.935959
  34       43.365959
  35       44.219490
  36       44.397279
 
  0.2727273E+00  0.2727273E+00  0.0000000E+00  0.4507889E-02
   1       -4.947969
   2        1.584178
   3        3.508059
   4        3.508060
   5        6.565585
   6        8.342531
   7       11.527290
   8       11.527291
   9       13.696949
  10       14.617973
  11       17.190507
  12       18.597347
  13       18.597348
  14       19.436422
  15       22.123737
  16       22.123737
  17       22.981709
  18       24.925941
  19       26.707257
  20       30.470221
  21       30.960278
  22       31.965522
  23       31.965529
  24       33.943361
  25       33.943370
  26       33.983231
  27       34.315743
  28       39.813202
  29       39.871605
  30       40.854833
  31       40.854837
  32       41.650199
  33       41.724789
  34       41.724796
  35       45.165004
  36       45.317161
 
  0.3636364E+00  0.2727273E+00  0.0000000E+00  0.1803156E-01
   1       -4.450891
   2        0.658382
   3        2.994796
   4        3.283714
   5        6.693285
   6        8.058650
   7       11.796217
   8       11.995374
   9       15.128510
  10       15.333279
  11       17.406949
  12       18.620107
  13       19.118908
  14       20.049455
  15       21.146306
  16       22.058588
  17       22.948832
  18       24.626970
  19       27.314348
  20       29.448285
  21       30.455156
  22       31.051363
  23       31.630324
  24       32.257084
  25       33.568456
  26       33.708521
  27       34.869678
  28       38.523070
  29       39.070476
  30       40.293969
  31       41.126815
  32       41.547011
  33       42.151832
  34       42.393091
  35       44.477102
  36       45.096698
 
  0.4545455E+00  0.2727273E+00  0.0000000E+00  0.1803156E-01
   1       -3.814273
   2       -0.335370
   3        2.297781
   4        3.223259
   5        6.896104
   6        8.775696
   7       11.631813
   8       11.886008
   9       16.336560
  10       16.628468
  11       16.994044
  12       17.029422
  13       19.010070
  14       20.863238
  15       22.027652
  16       23.592864
  17       23.739677
  18       24.605737
  19       26.345450
  20       27.463015
  21       29.781555
  22       30.060506
  23       30.534569
  24       32.652560
  25       33.517666
  26       33.895785
  27       36.079754
  28       36.356034
  29       37.408669
  30       39.463443
  31       40.870339
  32       41.087244
  33       41.854504
  34       42.475085
  35       43.715704
  36       45.170995
 
 -0.4545455E+00  0.2727273E+00  0.0000000E+00  0.1803156E-01
   1       -3.226080
   2       -1.104150
   3        1.746170
   4        3.330506
   5        7.028123
   6       10.212461
   7       11.465463
   8       11.578032
   9       14.805542
  10       14.962442
  11       18.453264
  12       18.485378
  13       18.873074
  14       22.766604
  15       22.822269
  16       23.271466
  17       23.765527
  18       25.050642
  19       25.130883
  20       27.936876
  21       28.834634
  22       29.470907
  23       29.862720
  24       33.339386
  25       33.427968
  26       33.767609
  27       34.102807
  28       36.077370
  29       37.163853
  30       39.066762
  31       40.153523
  32       40.514130
  33       42.016811
  34       42.728092
  35       43.132105
  36       45.301652
 
 -0.3636364E+00  0.2727273E+00  0.0000000E+00  0.1803156E-01
   1       -3.281530
   2       -1.026665
   3        1.474330
   4        3.593678
   5        7.305869
   6       11.212897
   7       11.235711
   8       12.110284
   9       13.122746
  10       13.254339
  11       18.444474
  12       20.340918
  13       20.403797
  14       21.177700
  15       21.737406
  16       22.984417
  17       24.129903
  18       25.119610
  19       27.015513
  20       27.372313
  21       29.377525
  22       29.856449
  23       30.917956
  24       31.563229
  25       33.129950
  26       33.655317
  27       34.130750
  28       34.404336
  29       38.889949
  30       39.060666
  31       40.299922
  32       40.784853
  33       41.852544
  34       42.745393
  35       42.843656
  36       44.118149
 
 -0.2727273E+00  0.2727273E+00  0.0000000E+00  0.9015778E-02
   1       -3.891144
   2       -0.294332
   3        1.632546
   4        3.979033
   5        7.728952
   6       10.646041
   7       10.937321
   8       11.768477
   9       12.201507
  10       14.045016
  11       18.406895
  12       19.049992
  13       19.419251
  14       21.977529
  15       22.085426
  16       22.742403
  17       23.270869
  18       25.821475
  19       27.837439
  20       28.163552
  21       29.560314
  22       30.718693
  23       31.114229
  24       31.286700
  25       32.839869
  26       34.101995
  27       34.386089
  28       35.187626
  29       39.116585
  30       39.338053
  31       40.573914
  32       42.103672
  33       42.104046
  34       42.393699
  35       42.897749
  36       43.136078
 
  0.3636364E+00  0.3636364E+00  0.0000000E+00  0.4507889E-02
   1       -4.008335
   2        0.012588
   3        3.018274
   4        3.018275
   5        6.223031
   6        7.238930
   7       13.146932
   8       13.146932
   9       15.579918
  10       15.705096
  11       18.433970
  12       18.433971
  13       18.728894
  14       20.752625
  15       21.063784
  16       21.924253
  17       21.924255
  18       23.877597
  19       28.485767
  20       28.845427
  21       29.514767
  22       29.514772
  23       30.760866
  24       32.283113
  25       33.591902
  26       33.802839
  27       33.802850
  28       39.963501
  29       39.971631
  30       39.971644
  31       40.367938
  32       41.087851
  33       43.896575
  34       43.896578
  35       44.172244
  36       44.687538
 
  0.4545455E+00  0.3636364E+00  0.0000000E+00  0.1803156E-01
   1       -3.406751
   2       -0.777950
   3        2.511655
   4        2.916158
   5        6.428982
   6        7.240331
   7       13.458145
   8       13.488484
   9       16.741672
  10       16.811374
  11       17.063809
  12       17.208819
  13       19.754751
  14       20.376357
  15       21.047408
  16       23.061885
  17       23.421523
  18       24.428327
  19       26.547396
  20       28.175908
  21       28.214314
  22       28.990590
  23       29.509612
  24       31.338768
  25       34.028829
  26       34.329967
  27       36.006063
  28       37.988822
  29       38.882694
  30       39.472566
  31       40.557978
  32       41.298388
  33       43.144719
  34       43.963857
  35       44.534234
  36       44.549983
 
 -0.4545455E+00  0.3636364E+00  0.0000000E+00  0.1803156E-01
   1       -2.758118
   2       -1.472102
   3        1.771624
   4        2.986027
   5        6.599702
   6        8.378769
   7       13.228428
   8       13.323852
   9       15.038644
  10       15.169905
  11       18.596958
  12       18.819875
  13       20.536820
  14       20.609752
  15       21.172801
  16       23.367932
  17       24.615262
  18       24.834784
  19       25.904752
  20       27.279708
  21       27.815708
  22       28.192692
  23       29.070012
  24       30.869602
  25       34.190386
  26       34.950663
  27       36.066860
  28       36.588135
  29       38.453722
  30       39.256979
  31       40.097697
  32       40.757173
  33       41.833930
  34       43.136286
  35       44.172145
  36       44.823913
 
 -0.3636364E+00  0.3636364E+00  0.0000000E+00  0.9015778E-02
   1       -2.702424
   2       -1.498200
   3        1.308479
   4        3.220866
   5        6.867780
   6       10.055739
   7       12.568751
   8       13.044610
   9       13.281409
  10       13.705306
  11       19.967040
  12       20.390536
  13       20.712832
  14       20.910619
  15       20.988263
  16       22.503210
  17       24.120261
  18       25.181351
  19       26.893041
  20       27.147869
  21       27.812253
  22       28.158874
  23       30.670821
  24       31.343859
  25       33.271038
  26       34.200694
  27       34.203990
  28       35.695234
  29       39.543125
  30       39.571894
  31       39.791499
  32       40.237599
  33       41.563023
  34       42.548043
  35       43.618479
  36       44.577251
 
  0.4545455E+00  0.4545455E+00  0.0000000E+00  0.4507889E-02
   1       -2.840670
   2       -1.482957
   3        2.767610
   4        2.767611
   5        6.190480
   6        6.517914
   7       14.796739
   8       14.796740
   9       16.843089
  10       16.843090
  11       17.095712
  12       17.356136
  13       18.712227
  14       18.782471
  15       23.104723
  16       23.874373
  17       23.874376
  18       24.355875
  19       26.488247
  20       26.563837
  21       26.563841
  22       27.644174
  23       29.884239
  24       31.054249
  25       34.191944
  26       34.191954
  27       37.422589
  28       39.058343
  29       39.058357
  30       40.115193
  31       40.527374
  32       40.722035
  33       43.119263
  34       43.757052
  35       44.367541
  36       44.367552
 
 -0.4545455E+00  0.4545455E+00  0.0000000E+00  0.9015778E-02
   1       -2.218096
   2       -2.106332
   3        2.352026
   4        2.791675
   5        6.370957
   6        6.930191
   7       14.741188
   8       14.951852
   9       15.465799
  10       15.680642
  11       18.489629
  12       18.504435
  13       18.538632
  14       19.066136
  15       23.135566
  16       23.469765
  17       24.885897
  18       25.216414
  19       25.522543
  20       26.227227
  21       26.739194
  22       27.372461
  23       29.499941
  24       30.295988
  25       34.256670
  26       35.186548
  27       37.071306
  28       38.734179
  29       39.098615
  30       39.293656
  31       40.417834
  32       40.480270
  33       42.929101
  34       43.400349
  35       43.810376
  36       43.933559
 
  0.2727273E+00  0.1818182E+00  0.9090909E-01  0.1803156E-01
   1       -5.500769
   2        2.487883
   3        3.722893
   4        4.673043
   5        7.847674
   6        9.018864
   7        9.809409
   8       10.257076
   9       12.397814
  10       13.830681
  11       15.565852
  12       16.915783