 vasp.5.3.3 18Dez12 (build Jan 30 2013 10:57:47) complex                        
  
 executed on             LinuxIFC date 2016.06.21  18:29:19
 running on   16 total cores
 distrk:  each k-point on   16 cores,    1 groups
 distr:  one band on NCORES_PER_BAND=   4 cores,    4 groups


--------------------------------------------------------------------------------------------------------


 INCAR:
 POTCAR:    PAW_PBE Si 05Jan2001                  

 ----------------------------------------------------------------------------- 
|                                                                             |
|  ADVICE TO THIS USER RUNNING 'VASP/VAMP'   (HEAR YOUR MASTER'S VOICE ...):  |
|                                                                             |
|      You have switched on vdW-DFT.                                          |
|      This routine was written and supplied by Jiri Klimes.                  |
|      We recommed that you carefully read and cite the following             |
|      publication                                                            |
|      J. Klimes, D.R. Bowler, A. Michelides                                  |
|        J. Phys.: Cond Matt. 22 022201 (2010)                                |
|      J. Klimes, D.R. Bowler, A. Michelides                                  |
|        Phys. Rev. B. 83, 195131 (2011)                                      |
|      and references therein.                                                |
|                                                                             |
 ----------------------------------------------------------------------------- 

 POTCAR:    PAW_PBE Si 05Jan2001                  
   VRHFIN =Si: s2p2                                                             
   LEXCH  = PE                                                                  
   EATOM  =   103.0669 eV,    7.5752 Ry                                         
                                                                                
   TITEL  = PAW_PBE Si 05Jan2001                                                
   LULTRA =        F    use ultrasoft PP ?                                      
   IUNSCR =        1    unscreen: 0-lin 1-nonlin 2-no                           
   RPACOR =    1.500    partial core radius                                     
   POMASS =   28.085; ZVAL   =    4.000    mass and valenz                      
   RCORE  =    1.900    outmost cutoff radius                                   
   RWIGS  =    2.480; RWIGS  =    1.312    wigner-seitz radius (au A)           
   ENMAX  =  245.345; ENMIN  =  184.009 eV                                      
   ICORE  =        2    local potential                                         
   LCOR   =        T    correct aug charges                                     
   LPAW   =        T    paw PP                                                  
   EAUG   =  322.069                                                            
   DEXC   =    0.000                                                            
   RMAX   =    1.950    core radius for proj-oper                               
   RAUG   =    1.300    factor for augmentation sphere                          
   RDEP   =    1.993    radius for radial grids                                 
   RDEPT  =    1.837    core radius for aug-charge                              
                                                                                
   Atomic configuration                                                         
    6 entries                                                                   
     n  l   j            E        occ.                                          
     1  0  0.50     -1785.8828   2.0000                                         
     2  0  0.50      -139.4969   2.0000                                         
     2  1  1.50       -95.5546   6.0000                                         
     3  0  0.50       -10.8127   2.0000                                         
     3  1  0.50        -4.0811   2.0000                                         
     3  2  1.50        -4.0817   0.0000                                         
   Description                                                                  
     l       E           TYP  RCUT    TYP  RCUT                                 
     0    -10.8127223     23  1.900                                             
     0     -7.6451159     23  1.900                                             
     1     -4.0811372     23  1.900                                             
     1      2.4879257     23  1.900                                             
     2     -4.0817478      7  1.900                                             
  local pseudopotential read in
  partial core-charges read in
  partial kinetic energy density read in
  atomic valenz-charges read in
  non local Contribution for L=           0  read in
    real space projection operators read in
  non local Contribution for L=           0  read in
    real space projection operators read in
  non local Contribution for L=           1  read in
    real space projection operators read in
  non local Contribution for L=           1  read in
    real space projection operators read in
    PAW grid and wavefunctions read in
 
   number of l-projection  operators is LMAX  =           4
   number of lm-projection operators is LMMAX =           8
 

 ----------------------------------------------------------------------------- 
|                                                                             |
|  ADVICE TO THIS USER RUNNING 'VASP/VAMP'   (HEAR YOUR MASTER'S VOICE ...):  |
|                                                                             |
|      You enforced a specific xc-type in the INCAR file,                     |
|      a different type was found on the POTCAR file                          |
|          I HOPE YOU KNOW, WHAT YOU ARE  DOING                               |
|                                                                             |
 ----------------------------------------------------------------------------- 

  PAW_PBE Si 05Jan2001                  :
 energy of atom  1       EATOM= -103.0669
 kinetic energy error for atom=    0.0006 (will be added to EATOM!!)
 
 
 POSCAR: bulk@mp_149                             
  positions in direct lattice
  velocities in cartesian coordinates
 exchange correlation table for  LEXCH =       42
   RHO(1)=    0.500       N(1)  =     2000
   RHO(2)=  100.500       N(2)  =     4000
 


--------------------------------------------------------------------------------------------------------


 ion  position               nearest neighbor table
   1  0.875  0.875  0.875-   2 2.38   2 2.38   2 2.38   2 2.38
   2  0.125  0.125  0.125-   1 2.38   1 2.38   1 2.38   1 2.38
 
  LATTYP: Found a face centered cubic cell.
 ALAT       =     5.4936342054
  
  Lattice vectors:
  
 A1 = (   3.3641500000,   0.0000000000,   1.9422930000)
 A2 = (   1.1213830000,   3.1717520000,   1.9422930000)
 A3 = (   0.0000000000,   0.0000000000,   3.8845860000)


Analysis of symmetry for initial positions (statically):
=====================================================================
 Subroutine PRICEL returns:
 Original cell was already a primitive cell.
 

 Routine SETGRP: Setting up the symmetry group for a 
 face centered cubic supercell.


 Subroutine GETGRP returns: Found 48 space group operations
 (whereof 12 operations were pure point group operations)
 out of a pool of 48 trial point group operations.


The static configuration has the point symmetry D_3d.
 The point group associated with its full space group is O_h .


Analysis of symmetry for dynamics (positions and initial velocities):
=====================================================================
 Subroutine PRICEL returns:
 Original cell was already a primitive cell.
 

 Routine SETGRP: Setting up the symmetry group for a 
 face centered cubic supercell.


 Subroutine GETGRP returns: Found 48 space group operations
 (whereof 12 operations were pure point group operations)
 out of a pool of 48 trial point group operations.


The dynamic configuration has the point symmetry D_3d.
 The point group associated with its full space group is O_h .


 irot  :   1
 --------------------------------------------------------------------
 isymop:   1   0   0
           0   1   0
           0   0   1

 gtrans:     0.0000000     0.0000000     0.0000000

 ptrans:     0.0000000     0.0000000     0.0000000
 rotmap:
 (   1->   1)  (   2->   2) 


 irot  :   2
 --------------------------------------------------------------------
 isymop:  -1   0   0
           0  -1   0
           0   0  -1

 gtrans:     0.0000000     0.0000000     0.0000000

 ptrans:     0.0000000     0.0000000     0.0000000
 rotmap:
 (   1->   2)  (   2->   1) 


 irot  :   3
 --------------------------------------------------------------------
 isymop:   0   0   1
           1   0   0
           0   1   0

 gtrans:     0.0000000     0.0000000     0.0000000

 ptrans:     0.0000000     0.0000000     0.0000000
 rotmap:
 (   1->   1)  (   2->   2) 


 irot  :   4
 --------------------------------------------------------------------
 isymop:   0   0  -1
          -1   0   0
           0  -1   0

 gtrans:     0.0000000     0.0000000     0.0000000

 ptrans:     0.0000000     0.0000000     0.0000000
 rotmap:
 (   1->   2)  (   2->   1) 


 irot  :   5
 --------------------------------------------------------------------
 isymop:   0   1   0
           0   0   1
           1   0   0

 gtrans:     0.0000000     0.0000000     0.0000000

 ptrans:     0.0000000     0.0000000     0.0000000
 rotmap:
 (   1->   1)  (   2->   2) 


 irot  :   6
 --------------------------------------------------------------------
 isymop:   0  -1   0
           0   0  -1
          -1   0   0

 gtrans:     0.0000000     0.0000000     0.0000000

 ptrans:     0.0000000     0.0000000     0.0000000
 rotmap:
 (   1->   2)  (   2->   1) 


 irot  :   7
 --------------------------------------------------------------------
 isymop:  -1   0   0
           0   0  -1
           0  -1   0

 gtrans:     0.0000000     0.0000000     0.0000000

 ptrans:     0.0000000     0.0000000     0.0000000
 rotmap:
 (   1->   2)  (   2->   1) 


 irot  :   8
 --------------------------------------------------------------------
 isymop:   1   0   0
           0   0   1
           0   1   0

 gtrans:     0.0000000     0.0000000     0.0000000

 ptrans:     0.0000000     0.0000000     0.0000000
 rotmap:
 (   1->   1)  (   2->   2) 


 irot  :   9
 --------------------------------------------------------------------
 isymop:   0  -1   0
          -1   0   0
           0   0  -1

 gtrans:     0.0000000     0.0000000     0.0000000

 ptrans:     0.0000000     0.0000000     0.0000000
 rotmap:
 (   1->   2)  (   2->   1) 


 irot  :  10
 --------------------------------------------------------------------
 isymop:   0   1   0
           1   0   0
           0   0   1

 gtrans:     0.0000000     0.0000000     0.0000000

 ptrans:     0.0000000     0.0000000     0.0000000
 rotmap:
 (   1->   1)  (   2->   2) 


 irot  :  11
 --------------------------------------------------------------------
 isymop:   0   0  -1
           0  -1   0
          -1   0   0

 gtrans:     0.0000000     0.0000000     0.0000000

 ptrans:     0.0000000     0.0000000     0.0000000
 rotmap:
 (   1->   2)  (   2->   1) 


 irot  :  12
 --------------------------------------------------------------------
 isymop:   0   0   1
           0   1   0
           1   0   0

 gtrans:     0.0000000     0.0000000     0.0000000

 ptrans:     0.0000000     0.0000000     0.0000000
 rotmap:
 (   1->   1)  (   2->   2) 


 irot  :  13
 --------------------------------------------------------------------
 isymop:   1   1   1
           0   0  -1
          -1   0   0

 gtrans:     0.5000000     0.0000000     0.0000000

 ptrans:     0.0000000     0.0000000     0.0000000
 rotmap:
 (   1->   2)  (   2->   1) 


 irot  :  14
 --------------------------------------------------------------------
 isymop:  -1  -1  -1
           0   0   1
           1   0   0

 gtrans:     0.5000000     0.0000000     0.0000000

 ptrans:     0.0000000     0.0000000     0.0000000
 rotmap:
 (   1->   1)  (   2->   2) 


 irot  :  15
 --------------------------------------------------------------------
 isymop:   1   1   1
           0  -1   0
           0   0  -1

 gtrans:     0.5000000     0.0000000     0.0000000

 ptrans:     0.0000000     0.0000000     0.0000000
 rotmap:
 (   1->   2)  (   2->   1) 


 irot  :  16
 --------------------------------------------------------------------
 isymop:  -1  -1  -1
           0   1   0
           0   0   1

 gtrans:     0.5000000     0.0000000     0.0000000

 ptrans:     0.0000000     0.0000000     0.0000000
 rotmap:
 (   1->   1)  (   2->   2) 


 irot  :  17
 --------------------------------------------------------------------
 isymop:   1   1   1
          -1   0   0
           0  -1   0

 gtrans:     0.5000000     0.0000000     0.0000000

 ptrans:     0.0000000     0.0000000     0.0000000
 rotmap:
 (   1->   2)  (   2->   1) 


 irot  :  18
 --------------------------------------------------------------------
 isymop:  -1  -1  -1
           1   0   0
           0   1   0

 gtrans:     0.5000000     0.0000000     0.0000000

 ptrans:     0.0000000     0.0000000     0.0000000
 rotmap:
 (   1->   1)  (   2->   2) 


 irot  :  19
 --------------------------------------------------------------------
 isymop:   0   1   0
           1   0   0
          -1  -1  -1

 gtrans:     0.0000000     0.0000000     0.5000000

 ptrans:     0.0000000     0.0000000     0.0000000
 rotmap:
 (   1->   1)  (   2->   2) 


 irot  :  20
 --------------------------------------------------------------------
 isymop:   0  -1   0
          -1   0   0
           1   1   1

 gtrans:     0.0000000     0.0000000     0.5000000

 ptrans:     0.0000000     0.0000000     0.0000000
 rotmap:
 (   1->   2)  (   2->   1) 


 irot  :  21
 --------------------------------------------------------------------
 isymop:   1   0   0
           0   0   1
          -1  -1  -1

 gtrans:     0.0000000     0.0000000     0.5000000

 ptrans:     0.0000000     0.0000000     0.0000000
 rotmap:
 (   1->   1)  (   2->   2) 


 irot  :  22
 --------------------------------------------------------------------
 isymop:  -1   0   0
           0   0  -1
           1   1   1

 gtrans:     0.0000000     0.0000000     0.5000000

 ptrans:     0.0000000     0.0000000     0.0000000
 rotmap:
 (   1->   2)  (   2->   1) 


 irot  :  23
 --------------------------------------------------------------------
 isymop:   0   0   1
           0   1   0
          -1  -1  -1

 gtrans:     0.0000000     0.0000000     0.5000000

 ptrans:     0.0000000     0.0000000     0.0000000
 rotmap:
 (   1->   1)  (   2->   2) 


 irot  :  24
 --------------------------------------------------------------------
 isymop:   0   0  -1
           0  -1   0
           1   1   1

 gtrans:     0.0000000     0.0000000     0.5000000

 ptrans:     0.0000000     0.0000000     0.0000000
 rotmap:
 (   1->   2)  (   2->   1) 


 irot  :  25
 --------------------------------------------------------------------
 isymop:   0   0  -1
           1   1   1
           0  -1   0

 gtrans:     0.0000000     0.5000000     0.0000000

 ptrans:     0.0000000     0.0000000     0.0000000
 rotmap:
 (   1->   2)  (   2->   1) 


 irot  :  26
 --------------------------------------------------------------------
 isymop:   0   0   1
          -1  -1  -1
           0   1   0

 gtrans:     0.0000000     0.5000000     0.0000000

 ptrans:     0.0000000     0.0000000     0.0000000
 rotmap:
 (   1->   1)  (   2->   2) 


 irot  :  27
 --------------------------------------------------------------------
 isymop:   0  -1   0
           1   1   1
          -1   0   0

 gtrans:     0.0000000     0.5000000     0.0000000

 ptrans:     0.0000000     0.0000000     0.0000000
 rotmap:
 (   1->   2)  (   2->   1) 


 irot  :  28
 --------------------------------------------------------------------
 isymop:   0   1   0
          -1  -1  -1
           1   0   0

 gtrans:     0.0000000     0.5000000     0.0000000

 ptrans:     0.0000000     0.0000000     0.0000000
 rotmap:
 (   1->   1)  (   2->   2) 


 irot  :  29
 --------------------------------------------------------------------
 isymop:  -1   0   0
           1   1   1
           0   0  -1

 gtrans:     0.0000000     0.5000000     0.0000000

 ptrans:     0.0000000     0.0000000     0.0000000
 rotmap:
 (   1->   2)  (   2->   1) 


 irot  :  30
 --------------------------------------------------------------------
 isymop:   1   0   0
          -1  -1  -1
           0   0   1

 gtrans:     0.0000000     0.5000000     0.0000000

 ptrans:     0.0000000     0.0000000     0.0000000
 rotmap:
 (   1->   1)  (   2->   2) 


 irot  :  31
 --------------------------------------------------------------------
 isymop:  -1  -1  -1
           0   1   0
           1   0   0

 gtrans:     0.5000000     0.0000000     0.0000000

 ptrans:     0.0000000     0.0000000     0.0000000
 rotmap:
 (   1->   1)  (   2->   2) 


 irot  :  32
 --------------------------------------------------------------------
 isymop:   1   1   1
           0  -1   0
          -1   0   0

 gtrans:     0.5000000     0.0000000     0.0000000

 ptrans:     0.0000000     0.0000000     0.0000000
 rotmap:
 (   1->   2)  (   2->   1) 


 irot  :  33
 --------------------------------------------------------------------
 isymop:  -1  -1  -1
           1   0   0
           0   0   1

 gtrans:     0.5000000     0.0000000     0.0000000

 ptrans:     0.0000000     0.0000000     0.0000000
 rotmap:
 (   1->   1)  (   2->   2) 


 irot  :  34
 --------------------------------------------------------------------
 isymop:   1   1   1
          -1   0   0
           0   0  -1

 gtrans:     0.5000000     0.0000000     0.0000000

 ptrans:     0.0000000     0.0000000     0.0000000
 rotmap:
 (   1->   2)  (   2->   1) 


 irot  :  35
 --------------------------------------------------------------------
 isymop:  -1  -1  -1
           0   0   1
           0   1   0

 gtrans:     0.5000000     0.0000000     0.0000000

 ptrans:     0.0000000     0.0000000     0.0000000
 rotmap:
 (   1->   1)  (   2->   2) 


 irot  :  36
 --------------------------------------------------------------------
 isymop:   1   1   1
           0   0  -1
           0  -1   0

 gtrans:     0.5000000     0.0000000     0.0000000

 ptrans:     0.0000000     0.0000000     0.0000000
 rotmap:
 (   1->   2)  (   2->   1) 


 irot  :  37
 --------------------------------------------------------------------
 isymop:   0  -1   0
           0   0  -1
           1   1   1

 gtrans:     0.0000000     0.0000000     0.5000000

 ptrans:     0.0000000     0.0000000     0.0000000
 rotmap:
 (   1->   2)  (   2->   1) 


 irot  :  38
 --------------------------------------------------------------------
 isymop:   0   1   0
           0   0   1
          -1  -1  -1

 gtrans:     0.0000000     0.0000000     0.5000000

 ptrans:     0.0000000     0.0000000     0.0000000
 rotmap:
 (   1->   1)  (   2->   2) 


 irot  :  39
 --------------------------------------------------------------------
 isymop:  -1   0   0
           0  -1   0
           1   1   1

 gtrans:     0.0000000     0.0000000     0.5000000

 ptrans:     0.0000000     0.0000000     0.0000000
 rotmap:
 (   1->   2)  (   2->   1) 


 irot  :  40
 --------------------------------------------------------------------
 isymop:   1   0   0
           0   1   0
          -1  -1  -1

 gtrans:     0.0000000     0.0000000     0.5000000

 ptrans:     0.0000000     0.0000000     0.0000000
 rotmap:
 (   1->   1)  (   2->   2) 


 irot  :  41
 --------------------------------------------------------------------
 isymop:   0   0  -1
          -1   0   0
           1   1   1

 gtrans:     0.0000000     0.0000000     0.5000000

 ptrans:     0.0000000     0.0000000     0.0000000
 rotmap:
 (   1->   2)  (   2->   1) 


 irot  :  42
 --------------------------------------------------------------------
 isymop:   0   0   1
           1   0   0
          -1  -1  -1

 gtrans:     0.0000000     0.0000000     0.5000000

 ptrans:     0.0000000     0.0000000     0.0000000
 rotmap:
 (   1->   1)  (   2->   2) 


 irot  :  43
 --------------------------------------------------------------------
 isymop:   1   0   0
          -1  -1  -1
           0   1   0

 gtrans:     0.0000000     0.5000000     0.0000000

 ptrans:     0.0000000     0.0000000     0.0000000
 rotmap:
 (   1->   1)  (   2->   2) 


 irot  :  44
 --------------------------------------------------------------------
 isymop:  -1   0   0
           1   1   1
           0  -1   0

 gtrans:     0.0000000     0.5000000     0.0000000

 ptrans:     0.0000000     0.0000000     0.0000000
 rotmap:
 (   1->   2)  (   2->   1) 


 irot  :  45
 --------------------------------------------------------------------
 isymop:   0   0   1
          -1  -1  -1
           1   0   0

 gtrans:     0.0000000     0.5000000     0.0000000

 ptrans:     0.0000000     0.0000000     0.0000000
 rotmap:
 (   1->   1)  (   2->   2) 


 irot  :  46
 --------------------------------------------------------------------
 isymop:   0   0  -1
           1   1   1
          -1   0   0

 gtrans:     0.0000000     0.5000000     0.0000000

 ptrans:     0.0000000     0.0000000     0.0000000
 rotmap:
 (   1->   2)  (   2->   1) 


 irot  :  47
 --------------------------------------------------------------------
 isymop:   0   1   0
          -1  -1  -1
           0   0   1

 gtrans:     0.0000000     0.5000000     0.0000000

 ptrans:     0.0000000     0.0000000     0.0000000
 rotmap:
 (   1->   1)  (   2->   2) 


 irot  :  48
 --------------------------------------------------------------------
 isymop:   0  -1   0
           1   1   1
           0   0  -1

 gtrans:     0.0000000     0.5000000     0.0000000

 ptrans:     0.0000000     0.0000000     0.0000000
 rotmap:
 (   1->   2)  (   2->   1) 
 
 
 KPOINTS: Automatic kpoint scheme                 

Automatic generation of k-mesh.
Space group operators:
 irot       det(A)        alpha          n_x          n_y          n_z        tau_x        tau_y        tau_z
    1     1.000000     0.000001     1.000000     0.000000     0.000000     0.000000     0.000000     0.000000
    2    -1.000000     0.000001     1.000000     0.000000     0.000000     0.000000     0.000000     0.000000
    3     1.000000   120.000000    -0.471404    -0.333333    -0.816497     0.000000     0.000000     0.000000
    4    -1.000000   120.000000    -0.471404    -0.333333    -0.816497     0.000000     0.000000     0.000000
    5     1.000000   120.000000     0.471405     0.333333     0.816497     0.000000     0.000000     0.000000
    6    -1.000000   120.000000     0.471405     0.333333     0.816497     0.000000     0.000000     0.000000
    7     1.000000   180.000000     0.288675     0.816497    -0.500000     0.000000     0.000000     0.000000
    8    -1.000000   180.000000     0.288675     0.816497    -0.500000     0.000000     0.000000     0.000000
    9     1.000000   179.999999     0.577350    -0.816496     0.000000     0.000000     0.000000     0.000000
   10    -1.000000   179.999999     0.577350    -0.816496     0.000000     0.000000     0.000000     0.000000
   11     1.000000   180.000000     0.866025     0.000000    -0.500000     0.000000     0.000000     0.000000
   12    -1.000000   180.000000     0.866025     0.000000    -0.500000     0.000000     0.000000     0.000000
   13     1.000000    90.000000    -0.816497    -0.577350     0.000000     0.500000     0.000000     0.000000
   14    -1.000000    90.000000    -0.816497    -0.577350     0.000000     0.500000     0.000000     0.000000
   15     1.000000   180.000000     0.866025     0.000000     0.500000     0.500000     0.000000     0.000000
   16    -1.000000   180.000000     0.866025     0.000000     0.500000     0.500000     0.000000     0.000000
   17     1.000000    90.000000     0.408248    -0.577350     0.707107     0.500000     0.000000     0.000000
   18    -1.000000    90.000000     0.408248    -0.577350     0.707107     0.500000     0.000000     0.000000
   19     1.000000   180.000000     0.816497     0.577350     0.000000     0.000000     0.000000     0.500000
   20    -1.000000   180.000000     0.816497     0.577350     0.000000     0.000000     0.000000     0.500000
   21     1.000000   120.000000     0.942809    -0.333333     0.000000     0.000000     0.000000     0.500000
   22    -1.000000   120.000000     0.942809    -0.333333     0.000000     0.000000     0.000000     0.500000
   23     1.000000   120.000000     0.000000    -1.000000     0.000000     0.000000     0.000000     0.500000
   24    -1.000000   120.000000     0.000000    -1.000000     0.000000     0.000000     0.000000     0.500000
   25     1.000000    90.000000     0.816497     0.577350     0.000000     0.000000     0.500000     0.000000
   26    -1.000000    90.000000     0.816497     0.577350     0.000000     0.000000     0.500000     0.000000
   27     1.000000    90.000000     0.408248    -0.577350    -0.707107     0.000000     0.500000     0.000000
   28    -1.000000    90.000000     0.408248    -0.577350    -0.707107     0.000000     0.500000     0.000000
   29     1.000000   180.000000     0.288675     0.816497     0.500000     0.000000     0.500000     0.000000
   30    -1.000000   180.000000     0.288675     0.816497     0.500000     0.000000     0.500000     0.000000
   31     1.000000   120.000000     0.000000     1.000000     0.000000     0.500000     0.000000     0.000000
   32    -1.000000   120.000000     0.000000     1.000000     0.000000     0.500000     0.000000     0.000000
   33     1.000000   120.000000     0.471404     0.333333    -0.816497     0.500000     0.000000     0.000000
   34    -1.000000   120.000000     0.471404     0.333333    -0.816497     0.500000     0.000000     0.000000
   35     1.000000   180.000000    -0.408248     0.577350     0.707107     0.500000     0.000000     0.000000
   36    -1.000000   180.000000    -0.408248     0.577350     0.707107     0.500000     0.000000     0.000000
   37     1.000000    90.000000    -0.408248     0.577350    -0.707107     0.000000     0.000000     0.500000
   38    -1.000000    90.000000    -0.408248     0.577350    -0.707107     0.000000     0.000000     0.500000
   39     1.000000   180.000000     0.000000     0.000000     1.000000     0.000000     0.000000     0.500000
   40    -1.000000   180.000000     0.000000     0.000000     1.000000     0.000000     0.000000     0.500000
   41     1.000000    90.000000    -0.408248     0.577350     0.707107     0.000000     0.000000     0.500000
   42    -1.000000    90.000000    -0.408248     0.577350     0.707107     0.000000     0.000000     0.500000
   43     1.000000   120.000000    -0.942809     0.333333     0.000000     0.000000     0.500000     0.000000
   44    -1.000000   120.000000    -0.942809     0.333333     0.000000     0.000000     0.500000     0.000000
   45     1.000000   180.000000    -0.408248     0.577350    -0.707107     0.000000     0.500000     0.000000
   46    -1.000000   180.000000    -0.408248     0.577350    -0.707107     0.000000     0.500000     0.000000
   47     1.000000   120.000000    -0.471405    -0.333333     0.816497     0.000000     0.500000     0.000000
   48    -1.000000   120.000000    -0.471405    -0.333333     0.816497     0.000000     0.500000     0.000000
 
 Subroutine IBZKPT returns following result:
 ===========================================
 
 Found     56 irreducible k-points:
 
 Following reciprocal coordinates:
            Coordinates               Weight
  0.000000  0.000000  0.000000      1.000000
  0.090909  0.000000  0.000000      8.000000
  0.181818  0.000000  0.000000      8.000000
  0.272727  0.000000  0.000000      8.000000
  0.363636  0.000000  0.000000      8.000000
  0.454545  0.000000  0.000000      8.000000
  0.090909  0.090909  0.000000      6.000000
  0.181818  0.090909  0.000000     24.000000
  0.272727  0.090909  0.000000     24.000000
  0.363636  0.090909  0.000000     24.000000
  0.454545  0.090909  0.000000     24.000000
 -0.454545  0.090909  0.000000     24.000000
 -0.363636  0.090909  0.000000     24.000000
 -0.272727  0.090909  0.000000     24.000000
 -0.181818  0.090909  0.000000     24.000000
 -0.090909  0.090909  0.000000     12.000000
  0.181818  0.181818  0.000000      6.000000
  0.272727  0.181818  0.000000     24.000000
  0.363636  0.181818  0.000000     24.000000
  0.454545  0.181818  0.000000     24.000000
 -0.454545  0.181818  0.000000     24.000000
 -0.363636  0.181818  0.000000     24.000000
 -0.272727  0.181818  0.000000     24.000000
 -0.181818  0.181818  0.000000     12.000000
  0.272727  0.272727  0.000000      6.000000
  0.363636  0.272727  0.000000     24.000000
  0.454545  0.272727  0.000000     24.000000
 -0.454545  0.272727  0.000000     24.000000
 -0.363636  0.272727  0.000000     24.000000
 -0.272727  0.272727  0.000000     12.000000
  0.363636  0.363636  0.000000      6.000000
  0.454545  0.363636  0.000000     24.000000
 -0.454545  0.363636  0.000000     24.000000
 -0.363636  0.363636  0.000000     12.000000
  0.454545  0.454545  0.000000      6.000000
 -0.454545  0.454545  0.000000     12.000000
  0.272727  0.181818  0.090909     24.000000
  0.363636  0.181818  0.090909     48.000000
  0.454545  0.181818  0.090909     48.000000
 -0.454545  0.181818  0.090909     48.000000
  0.363636  0.272727  0.090909     24.000000
  0.454545  0.272727  0.090909     48.000000
 -0.454545  0.272727  0.090909     48.000000
 -0.363636  0.272727  0.090909     48.000000
 -0.272727  0.272727  0.090909     48.000000
 -0.181818  0.272727  0.090909     24.000000
  0.454545  0.363636  0.090909     24.000000
 -0.454545  0.363636  0.090909     48.000000
 -0.363636  0.363636  0.090909     48.000000
 -0.272727  0.363636  0.090909     24.000000
 -0.454545  0.454545  0.090909     24.000000
 -0.363636  0.454545  0.090909     24.000000
 -0.454545  0.363636  0.181818     24.000000
 -0.363636  0.363636  0.181818     48.000000
 -0.363636  0.454545  0.181818     24.000000
 -0.272727  0.454545  0.181818     24.000000
 
 Following cartesian coordinates:
            Coordinates               Weight
  0.000000  0.000000  0.000000      1.000000
  0.027023 -0.009554  0.000000      8.000000
  0.054046 -0.019108  0.000000      8.000000
  0.081069 -0.028662  0.000000      8.000000
  0.108092 -0.038216  0.000000      8.000000
  0.135115 -0.047770  0.000000      8.000000
  0.027023  0.019108  0.000000      6.000000
  0.054046  0.009554  0.000000     24.000000
  0.081069  0.000000  0.000000     24.000000
  0.108092 -0.009554  0.000000     24.000000
  0.135115 -0.019108  0.000000     24.000000
 -0.135115  0.076432  0.000000     24.000000
 -0.108092  0.066878  0.000000     24.000000
 -0.081069  0.057324  0.000000     24.000000
 -0.054046  0.047770  0.000000     24.000000
 -0.027023  0.038216  0.000000     12.000000
  0.054046  0.038216  0.000000      6.000000
  0.081069  0.028662  0.000000     24.000000
  0.108092  0.019108  0.000000     24.000000
  0.135115  0.009554  0.000000     24.000000
 -0.135115  0.105094  0.000000     24.000000
 -0.108092  0.095540  0.000000     24.000000
 -0.081069  0.085986  0.000000     24.000000
 -0.054046  0.076432  0.000000     12.000000
  0.081069  0.057324  0.000000      6.000000
  0.108092  0.047770  0.000000     24.000000
  0.135115  0.038216  0.000000     24.000000
 -0.135115  0.133756  0.000000     24.000000
 -0.108092  0.124202  0.000000     24.000000
 -0.081069  0.114648  0.000000     12.000000
  0.108092  0.076432  0.000000      6.000000
  0.135115  0.066878  0.000000     24.000000
 -0.135115  0.162419  0.000000     24.000000
 -0.108092  0.152865  0.000000     12.000000
  0.135115  0.095540  0.000000      6.000000
 -0.135115  0.191081  0.000000     12.000000
  0.067557  0.019108  0.023403     24.000000
  0.094580  0.009554  0.023403     48.000000
  0.121603  0.000000  0.023403     48.000000
 -0.148626  0.095540  0.023403     48.000000
  0.094580  0.038216  0.023403     24.000000
  0.121603  0.028662  0.023403     48.000000
 -0.148626  0.124202  0.023403     48.000000
 -0.121603  0.114648  0.023403     48.000000
 -0.094580  0.105094  0.023403     48.000000
 -0.067557  0.095540  0.023403     24.000000
  0.121603  0.057324  0.023403     24.000000
 -0.148626  0.152865  0.023403     48.000000
 -0.121603  0.143311  0.023403     48.000000
 -0.094580  0.133756  0.023403     24.000000
 -0.148626  0.181527  0.023403     24.000000
 -0.121603  0.171973  0.023403     24.000000
 -0.162137  0.143311  0.046805     24.000000
 -0.135115  0.133756  0.046805     48.000000
 -0.135115  0.162419  0.046805     24.000000
 -0.108092  0.152865  0.046805     24.000000
 


--------------------------------------------------------------------------------------------------------




 Dimension of arrays:
   k-points           NKPTS =     56   k-points in BZ     NKDIM =     56   number of bands    NBANDS=     36
   number of dos      NEDOS =   5000   number of ions     NIONS =      2
   non local maximal  LDIM  =      4   non local SUM 2l+1 LMDIM =      8
   total plane-waves  NPLWV =  21952
   max r-space proj   IRMAX =      1   max aug-charges    IRDMAX=  17905
   dimension x,y,z NGX =    28 NGY =   28 NGZ =   28
   dimension x,y,z NGXF=    56 NGYF=   56 NGZF=   56
   support grid    NGXF=    56 NGYF=   56 NGZF=   56
   ions per type =               2
 NGX,Y,Z   is equivalent  to a cutoff of  11.98, 11.98, 11.98 a.u.
 NGXF,Y,Z  is equivalent  to a cutoff of  23.97, 23.97, 23.97 a.u.


 I would recommend the setting:
   dimension x,y,z NGX =    28 NGY =   28 NGZ =   28
 SYSTEM =  unknown system                          
 POSCAR =  bulk@mp_149                             

 Startparameter for this run:
   NWRITE =      2    write-flag & timer
   PREC   = accura    normal or accurate (medium, high low for compatibility)
   ISTART =      0    job   : 0-new  1-cont  2-samecut
   ICHARG =      2    charge: 1-file 2-atom 10-const
   ISPIN  =      1    spin polarized calculation?
   LNONCOLLINEAR =      F non collinear calculations
   LSORBIT =      F    spin-orbit coupling
   INIWAV =      1    electr: 0-lowe 1-rand  2-diag
   LASPH  =      F    aspherical Exc in radial PAW
   METAGGA=      F    non-selfconsistent MetaGGA calc.

 Electronic Relaxation 1
   ENCUT  =  500.0 eV  36.75 Ry    6.06 a.u.   7.08  7.08  7.08*2*pi/ulx,y,z
   ENINI  =  500.0     initial cutoff
   ENAUG  =  322.1 eV  augmentation charge cutoff
   NELM   =    400;   NELMIN=  2; NELMDL= -5     # of ELM steps 
   EDIFF  = 0.1E-06   stopping-criterion for ELM
   LREAL  =      F    real-space projection
   NLSPLINE    = F    spline interpolate recip. space projectors
   LCOMPAT=      F    compatible to vasp.4.4
   GGA_COMPAT  = T    GGA compatible to vasp.4.4-vasp.4.6
   LMAXPAW     = -100 max onsite density
   LMAXMIX     =    2 max onsite mixed and CHGCAR
   VOSKOWN=      0    Vosko Wilk Nusair interpolation
   ROPT   =    0.00000
 Ionic relaxation
   EDIFFG = 0.1E-05   stopping-criterion for IOM
   NSW    =      0    number of steps for IOM
   NBLOCK =      1;   KBLOCK =      1    inner block; outer block 
   IBRION =     -1    ionic relax: 0-MD 1-quasi-New 2-CG
   NFREE  =      0    steps in history (QN), initial steepest desc. (CG)
   ISIF   =      2    stress and relaxation
   IWAVPR =     10    prediction:  0-non 1-charg 2-wave 3-comb
   ISYM   =      2    0-nonsym 1-usesym 2-fastsym
   LCORR  =      T    Harris-Foulkes like correction to forces

   POTIM  = 0.5000    time-step for ionic-motion
   TEIN   =    0.0    initial temperature
   TEBEG  =    0.0;   TEEND  =   0.0 temperature during run
   SMASS  =  -3.00    Nose mass-parameter (am)
   estimated Nose-frequenzy (Omega)   =  0.10E-29 period in steps =****** mass=  -0.345E-27a.u.
   SCALEE = 1.0000    scale energy and forces
   NPACO  =    256;   APACO  = 16.0  distance and # of slots for P.C.
   PSTRESS=    0.0 pullay stress

  Mass of Ions in am
   POMASS =  28.09
  Ionic Valenz
   ZVAL   =   4.00
  Atomic Wigner-Seitz radii
   RWIGS  =  -1.00
  virtual crystal weights 
   VCA    =   1.00
   NELECT =       8.0000    total number of electrons
   NUPDOWN=      -1.0000    fix difference up-down

 DOS related values:
   EMIN   =  10.00;   EMAX   =-10.00  energy-range for DOS
   EFERMI =   0.00
   ISMEAR =     0;   SIGMA  =   0.20  broadening in eV -4-tet -1-fermi 0-gaus

 Electronic relaxation 2 (details)
   IALGO  =     38    algorithm
   LDIAG  =      T    sub-space diagonalisation (order eigenvalues)
   LSUBROT=      T    optimize rotation matrix (better conditioning)
   TURBO    =      0    0=normal 1=particle mesh
   IRESTART =      0    0=no restart 2=restart with 2 vectors
   NREBOOT  =      0    no. of reboots
   NMIN     =      0    reboot dimension
   EREF     =   0.00    reference energy to select bands
   IMIX   =      4    mixing-type and parameters
     AMIX     =   0.40;   BMIX     =  1.00
     AMIX_MAG =   1.60;   BMIX_MAG =  1.00
     AMIN     =   0.10
     WC   =   100.;   INIMIX=   1;  MIXPRE=   1;  MAXMIX= -45

 Intra band minimization:
   WEIMIN = 0.0000     energy-eigenvalue tresh-hold
   EBREAK =  0.69E-09  absolut break condition
   DEPER  =   0.30     relativ break condition  

   TIME   =   0.40     timestep for ELM

  volume/ion in A,a.u.               =      20.72       139.86
  Fermi-wavevector in a.u.,A,eV,Ry     =   0.946088  1.787848 12.178347  0.895083
  Thomas-Fermi vector in A             =   2.074053
 
 Write flags
   LWAVE  =      F    write WAVECAR
   LCHARG =      F    write CHGCAR
   LVTOT  =      F    write LOCPOT, total local potential
   LVHAR  =      F    write LOCPOT, Hartree potential only
   LELF   =      F    write electronic localiz. function (ELF)
   LORBIT =     11    0 simple, 1 ext, 2 COOP (PROOUT)


 Dipole corrections
   LMONO  =      F    monopole corrections only (constant potential shift)
   LDIPOL =      F    correct potential (dipole corrections)
   IDIPOL =      0    1-x, 2-y, 3-z, 4-all directions 
   EPSILON=  1.0000000 bulk dielectric constant

 Exchange correlation treatment:
   GGA     =    BO    GGA type
   LEXCH   =    42    internal setting for exchange type
   VOSKOWN=      0    Vosko Wilk Nusair interpolation
   LHFCALC =     F    Hartree Fock is set to
   LHFONE  =     F    Hartree Fock one center treatment
   AEXX    =    0.0000 exact exchange contribution

 vdW DFT:
   LUSE_VDW   =     T    switch on vdW DFT
   Zab_VDW    =-.8491    correlation parameter
   PARAM1     =0.1833
   PARAM2     =0.2200
   PARAM3     =0.0000

 Linear response parameters
   LEPSILON=     F    determine dielectric tensor
   LRPA    =     F    only Hartree local field effects (RPA)
   LNABLA  =     F    use nabla operator in PAW spheres
   LVEL    =     F    velocity operator in full k-point grid
   LINTERFAST=   F  fast interpolation
   KINTER  =     0    interpolate to denser k-point grid
   CSHIFT  =0.1000    complex shift for real part using Kramers Kronig
   OMEGAMAX=  -1.0    maximum frequency
   DEG_THRESHOLD= 0.2000000E-02 threshold for treating states as degnerate
   RTIME   =    0.100 relaxation time in fs

 Orbital magnetization related:
   ORBITALMAG=     F  switch on orbital magnetization
   LCHIMAG   =     F  perturbation theory with respect to B field
   DQ        =  0.001000  dq finite difference perturbation B field



--------------------------------------------------------------------------------------------------------


 Static calculation
 charge density and potential will be updated during run
 non-spin polarized calculation
 Variant of blocked Davidson
 Davidson routine will perform the subspace rotation
 perform sub-space diagonalisation
    after iterative eigenvector-optimisation
 modified Broyden-mixing scheme, WC =      100.0
 initial mixing is a Kerker type mixing with AMIX =  0.4000 and BMIX =      1.0000
 Hartree-type preconditioning will be used
 using additional bands           32
 reciprocal scheme for non local part
 use partial core corrections
 calculate Harris-corrections to forces 
   (improved forces if not selfconsistent)
 use gradient corrections 
 use of overlap-Matrix (Vanderbilt PP)
 Gauss-broadening in eV      SIGMA  =   0.20


--------------------------------------------------------------------------------------------------------


  energy-cutoff  :      500.00
  volume of cell :       41.45
      direct lattice vectors                 reciprocal lattice vectors
     3.364150000  0.000000000  1.942293000     0.297251906 -0.105094356  0.000000000
     1.121383000  3.171752000  1.942293000     0.000000000  0.315283162  0.000000000
     0.000000000  0.000000000  3.884586000    -0.148625953 -0.105094403  0.257427690

  length of vectors
     3.884585862  3.884586552  3.884586000     0.315283237  0.315283162  0.315283242


 
 k-points in units of 2pi/SCALE and weight: Automatic kpoint scheme                 
   0.00000000  0.00000000  0.00000000       0.001
   0.02702290 -0.00955403  0.00000000       0.006
   0.05404580 -0.01910806  0.00000000       0.006
   0.08106870 -0.02866210  0.00000000       0.006
   0.10809160 -0.03821613  0.00000000       0.006
   0.13511450 -0.04777016  0.00000000       0.006
   0.02702290  0.01910807  0.00000000       0.005
   0.05404580  0.00955404  0.00000000       0.018
   0.08106870  0.00000001  0.00000000       0.018
   0.10809160 -0.00955402  0.00000000       0.018
   0.13511450 -0.01910806  0.00000000       0.018
  -0.13511450  0.07643227  0.00000000       0.018
  -0.10809160  0.06687824  0.00000000       0.018
  -0.08106870  0.05732420  0.00000000       0.018
  -0.05404580  0.04777017  0.00000000       0.018
  -0.02702290  0.03821614  0.00000000       0.009
   0.05404580  0.03821615  0.00000000       0.005
   0.08106870  0.02866211  0.00000000       0.018
   0.10809160  0.01910808  0.00000000       0.018
   0.13511450  0.00955405  0.00000000       0.018
  -0.13511450  0.10509437  0.00000000       0.018
  -0.10809160  0.09554034  0.00000000       0.018
  -0.08106870  0.08598631  0.00000000       0.018
  -0.05404580  0.07643228  0.00000000       0.009
   0.08106870  0.05732422  0.00000000       0.005
   0.10809160  0.04777019  0.00000000       0.018
   0.13511450  0.03821616  0.00000000       0.018
  -0.13511450  0.13375648  0.00000000       0.018
  -0.10809160  0.12420245  0.00000000       0.018
  -0.08106870  0.11464841  0.00000000       0.009
   0.10809160  0.07643229  0.00000000       0.005
   0.13511450  0.06687826  0.00000000       0.018
  -0.13511450  0.16241858  0.00000000       0.018
  -0.10809160  0.15286455  0.00000000       0.009
   0.13511450  0.09554037  0.00000000       0.005
  -0.13511450  0.19108069  0.00000000       0.009
   0.06755725  0.01910808  0.02340252       0.018
   0.09458015  0.00955405  0.02340252       0.036
   0.12160305  0.00000001  0.02340252       0.036
  -0.14862595  0.09554034  0.02340252       0.036
   0.09458015  0.03821615  0.02340252       0.018
   0.12160305  0.02866212  0.02340252       0.036
  -0.14862595  0.12420244  0.02340252       0.036
  -0.12160305  0.11464841  0.02340252       0.036
  -0.09458015  0.10509438  0.02340252       0.036
  -0.06755725  0.09554035  0.02340252       0.018
   0.12160305  0.05732422  0.02340252       0.018
  -0.14862595  0.15286455  0.02340252       0.036
  -0.12160305  0.14331052  0.02340252       0.036
  -0.09458015  0.13375648  0.02340252       0.018
  -0.14862595  0.18152665  0.02340252       0.018
  -0.12160305  0.17197262  0.02340252       0.018
  -0.16213740  0.14331051  0.04680503       0.018
  -0.13511450  0.13375648  0.04680503       0.036
  -0.13511450  0.16241858  0.04680503       0.018
  -0.10809160  0.15286455  0.04680503       0.018
 
 k-points in reciprocal lattice and weights: Automatic kpoint scheme                 
   0.00000000  0.00000000  0.00000000       0.001
   0.09090909  0.00000000  0.00000000       0.006
   0.18181818  0.00000000  0.00000000       0.006
   0.27272727  0.00000000  0.00000000       0.006
   0.36363636  0.00000000  0.00000000       0.006
   0.45454545  0.00000000  0.00000000       0.006
   0.09090909  0.09090909  0.00000000       0.005
   0.18181818  0.09090909  0.00000000       0.018
   0.27272727  0.09090909  0.00000000       0.018
   0.36363636  0.09090909  0.00000000       0.018
   0.45454545  0.09090909  0.00000000       0.018
  -0.45454545  0.09090909  0.00000000       0.018
  -0.36363636  0.09090909  0.00000000       0.018
  -0.27272727  0.09090909  0.00000000       0.018
  -0.18181818  0.09090909  0.00000000       0.018
  -0.09090909  0.09090909  0.00000000       0.009
   0.18181818  0.18181818  0.00000000       0.005
   0.27272727  0.18181818  0.00000000       0.018
   0.36363636  0.18181818  0.00000000       0.018
   0.45454545  0.18181818  0.00000000       0.018
  -0.45454545  0.18181818  0.00000000       0.018
  -0.36363636  0.18181818  0.00000000       0.018
  -0.27272727  0.18181818  0.00000000       0.018
  -0.18181818  0.18181818  0.00000000       0.009
   0.27272727  0.27272727  0.00000000       0.005
   0.36363636  0.27272727  0.00000000       0.018
   0.45454545  0.27272727  0.00000000       0.018
  -0.45454545  0.27272727  0.00000000       0.018
  -0.36363636  0.27272727  0.00000000       0.018
  -0.27272727  0.27272727  0.00000000       0.009
   0.36363636  0.36363636  0.00000000       0.005
   0.45454545  0.36363636  0.00000000       0.018
  -0.45454545  0.36363636  0.00000000       0.018
  -0.36363636  0.36363636  0.00000000       0.009
   0.45454545  0.45454545  0.00000000       0.005
  -0.45454545  0.45454545  0.00000000       0.009
   0.27272727  0.18181818  0.09090909       0.018
   0.36363636  0.18181818  0.09090909       0.036
   0.45454545  0.18181818  0.09090909       0.036
  -0.45454545  0.18181818  0.09090909       0.036
   0.36363636  0.27272727  0.09090909       0.018
   0.45454545  0.27272727  0.09090909       0.036
  -0.45454545  0.27272727  0.09090909       0.036
  -0.36363636  0.27272727  0.09090909       0.036
  -0.27272727  0.27272727  0.09090909       0.036
  -0.18181818  0.27272727  0.09090909       0.018
   0.45454545  0.36363636  0.09090909       0.018
  -0.45454545  0.36363636  0.09090909       0.036
  -0.36363636  0.36363636  0.09090909       0.036
  -0.27272727  0.36363636  0.09090909       0.018
  -0.45454545  0.45454545  0.09090909       0.018
  -0.36363636  0.45454545  0.09090909       0.018
  -0.45454545  0.36363636  0.18181818       0.018
  -0.36363636  0.36363636  0.18181818       0.036
  -0.36363636  0.45454545  0.18181818       0.018
  -0.27272727  0.45454545  0.18181818       0.018
 
 position of ions in fractional coordinates (direct lattice) 
   0.87500000  0.87500000  0.87500000
   0.12500000  0.12500000  0.12500000
 
 position of ions in cartesian coordinates  (Angst):
   3.92484138  2.77528300  6.79802550
   0.56069163  0.39646900  0.97114650
 


--------------------------------------------------------------------------------------------------------


 k-point  1 :   0.0000 0.0000 0.0000  plane waves:    1067
 k-point  2 :   0.0909 0.0000 0.0000  plane waves:    1034
 k-point  3 :   0.1818 0.0000 0.0000  plane waves:    1043
 k-point  4 :   0.2727 0.0000 0.0000  plane waves:    1053
 k-point  5 :   0.3636 0.0000 0.0000  plane waves:    1053
 k-point  6 :   0.4545 0.0000 0.0000  plane waves:    1056
 k-point  7 :   0.0909 0.0909 0.0000  plane waves:    1034
 k-point  8 :   0.1818 0.0909 0.0000  plane waves:    1031
 k-point  9 :   0.2727 0.0909 0.0000  plane waves:    1046
 k-point 10 :   0.3636 0.0909 0.0000  plane waves:    1055
 k-point 11 :   0.4545 0.0909 0.0000  plane waves:    1046
 k-point 12 :  -0.4545 0.0909 0.0000  plane waves:    1054
 k-point 13 :  -0.3636 0.0909 0.0000  plane waves:    1049
 k-point 14 :  -0.2727 0.0909 0.0000  plane waves:    1054
 k-point 15 :  -0.1818 0.0909 0.0000  plane waves:    1041
 k-point 16 :  -0.0909 0.0909 0.0000  plane waves:    1029
 k-point 17 :   0.1818 0.1818 0.0000  plane waves:    1042
 k-point 18 :   0.2727 0.1818 0.0000  plane waves:    1048
 k-point 19 :   0.3636 0.1818 0.0000  plane waves:    1048
 k-point 20 :   0.4545 0.1818 0.0000  plane waves:    1056
 k-point 21 :  -0.4545 0.1818 0.0000  plane waves:    1059
 k-point 22 :  -0.3636 0.1818 0.0000  plane waves:    1059
 k-point 23 :  -0.2727 0.1818 0.0000  plane waves:    1052
 k-point 24 :  -0.1818 0.1818 0.0000  plane waves:    1061
 k-point 25 :   0.2727 0.2727 0.0000  plane waves:    1042
 k-point 26 :   0.3636 0.2727 0.0000  plane waves:    1045
 k-point 27 :   0.4545 0.2727 0.0000  plane waves:    1052
 k-point 28 :  -0.4545 0.2727 0.0000  plane waves:    1051
 k-point 29 :  -0.3636 0.2727 0.0000  plane waves:    1056
 k-point 30 :  -0.2727 0.2727 0.0000  plane waves:    1061
 k-point 31 :   0.3636 0.3636 0.0000  plane waves:    1042
 k-point 32 :   0.4545 0.3636 0.0000  plane waves:    1052
 k-point 33 :  -0.4545 0.3636 0.0000  plane waves:    1052
 k-point 34 :  -0.3636 0.3636 0.0000  plane waves:    1059
 k-point 35 :   0.4545 0.4545 0.0000  plane waves:    1054
 k-point 36 :  -0.4545 0.4545 0.0000  plane waves:    1051
 k-point 37 :   0.2727 0.1818 0.0909  plane waves:    1042
 k-point 38 :   0.3636 0.1818 0.0909  plane waves:    1045
 k-point 39 :   0.4545 0.1818 0.0909  plane waves:    1054
 k-point 40 :  -0.4545 0.1818 0.0909  plane waves:    1055
 k-point 41 :   0.3636 0.2727 0.0909  plane waves:    1046
 k-point 42 :   0.4545 0.2727 0.0909  plane waves:    1051
 k-point 43 :  -0.4545 0.2727 0.0909  plane waves:    1053
 k-point 44 :  -0.3636 0.2727 0.0909  plane waves:    1058
 k-point 45 :  -0.2727 0.2727 0.0909  plane waves:    1057
 k-point 46 :  -0.1818 0.2727 0.0909  plane waves:    1051
 k-point 47 :   0.4545 0.3636 0.0909  plane waves:    1048
 k-point 48 :  -0.4545 0.3636 0.0909  plane waves:    1059
 k-point 49 :  -0.3636 0.3636 0.0909  plane waves:    1062
 k-point 50 :  -0.2727 0.3636 0.0909  plane waves:    1058
 k-point 51 :  -0.4545 0.4545 0.0909  plane waves:    1052
 k-point 52 :  -0.3636 0.4545 0.0909  plane waves:    1059
 k-point 53 :  -0.4545 0.3636 0.1818  plane waves:    1054
 k-point 54 :  -0.3636 0.3636 0.1818  plane waves:    1056
 k-point 55 :  -0.3636 0.4545 0.1818  plane waves:    1061
 k-point 56 :  -0.2727 0.4545 0.1818  plane waves:    1057

 maximum and minimum number of plane-waves per node :       275      252

 maximum number of plane-waves:      1067
 maximum index in each direction: 
   IXMAX=    7   IYMAX=    7   IZMAX=    7
   IXMIN=   -7   IYMIN=   -7   IZMIN=   -7

 WARNING: aliasing errors must be expected set NGX to  30 to avoid them
 WARNING: aliasing errors must be expected set NGY to  30 to avoid them
 WARNING: aliasing errors must be expected set NGZ to  30 to avoid them
 aliasing errors are usually negligible using standard VASP settings
 and one can safely disregard these warnings

 parallel 3D FFT for wavefunctions:
    minimum data exchange during FFTs selected (reduces bandwidth)
 parallel 3D FFT for charge:
    minimum data exchange during FFTs selected (reduces bandwidth)


 total amount of memory used by VASP on root node    34716. kBytes
========================================================================

   base      :      30000. kBytes
   nonl-proj :        998. kBytes
   fftplans  :        586. kBytes
   grid      :        839. kBytes
   one-center:          3. kBytes
   wavefun   :       2290. kBytes
 
 Broyden mixing: mesh for mixing (old mesh)
   NGX = 15   NGY = 15   NGZ = 15
  (NGX  = 56   NGY  = 56   NGZ  = 56)
  gives a total of   3375 points

 initial charge density was supplied:
 charge density of overlapping atoms calculated
 number of electron       8.0000000 magnetization 
 keeping initial charge density in first step


--------------------------------------------------------------------------------------------------------


 Maximum index for augmentation-charges         1407 (set IRDMAX)


--------------------------------------------------------------------------------------------------------


 First call to EWALD:  gamma=   0.512
 Maximum number of real-space cells 3x 3x 3
 Maximum number of reciprocal cells 3x 3x 3

 FEWALD executed in parallel
    FEWALD:  cpu time    0.00: real time    0.00


----------------------------------------- Iteration    1(   1)  ---------------------------------------


vdW kernel read from vdw_kernel.bindat
  0.0000  0.2424  0.5071  0.7962  1.1119  1.4567  1.8333  2.2446  2.6937  3.1842
  3.7199  4.3049  4.9438  5.6415  6.4036  7.2358  8.1446  9.1372 10.2212 11.4050
 12.6979 14.1099 15.6519 17.3360 19.1751 21.1837 23.3773 25.7729 28.3892 31.2465
 34.3669 37.7748 41.4965 45.5611 50.0000
 
    POTLOK:  cpu time    2.97: real time    2.98
    SETDIJ:  cpu time    0.00: real time    0.00
     EDDAV:  cpu time    2.63: real time    2.63
       DOS:  cpu time    0.02: real time    0.02
    --------------------------------------------
      LOOP:  cpu time    5.63: real time    6.42

 eigenvalue-minimisations  :  4032
 total energy-change (2. order) : 0.1568535E+02  (-0.2484206E+03)
 number of electron       8.0000000 magnetization 
 augmentation part        8.0000000 magnetization 

 Free energy of the ion-electron system (eV)
  ---------------------------------------------------
  alpha Z        PSCENC =         3.24859208
  Ewald energy   TEWEN  =      -225.91599796
  -1/2 Hartree   DENC   =       -11.53190716
  -exchange  EXHF       =         0.00000000
  -V(xc)+E(xc)   XCENC  =       -20.29572212
  PAW double counting   =       189.40224250     -152.61488262
  entropy T*S    EENTRO =        -0.00239412
  eigenvalues    EBANDS =        24.80168123
  atomic energy  EATOM  =       208.59373829
  ---------------------------------------------------
  free energy    TOTEN  =        15.68535011 eV

  energy without entropy =       15.68774424  energy(sigma->0) =       15.68654717


--------------------------------------------------------------------------------------------------------




----------------------------------------- Iteration    1(   2)  ---------------------------------------


     EDDAV:  cpu time    3.29: real time    3.30
       DOS:  cpu time    0.03: real time    0.03
    --------------------------------------------
      LOOP:  cpu time    3.33: real time    3.97

 eigenvalue-minimisations  :  5120
 total energy-change (2. order) :-0.2356676E+02  (-0.2254452E+02)
 number of electron       8.0000000 magnetization 
 augmentation part        8.0000000 magnetization 

 Free energy of the ion-electron system (eV)
  ---------------------------------------------------
  alpha Z        PSCENC =         3.24859208
  Ewald energy   TEWEN  =      -225.91599796
  -1/2 Hartree   DENC   =       -11.53190716
  -exchange  EXHF       =         0.00000000
  -V(xc)+E(xc)   XCENC  =       -20.29572212
  PAW double counting   =       189.40224250     -152.61488262
  entropy T*S    EENTRO =        -0.00000294
  eigenvalues    EBANDS =         1.23253326
  atomic energy  EATOM  =       208.59373829
  ---------------------------------------------------
  free energy    TOTEN  =        -7.88140667 eV

  energy without entropy =       -7.88140374  energy(sigma->0) =       -7.88140521


--------------------------------------------------------------------------------------------------------




----------------------------------------- Iteration    1(   3)  ---------------------------------------


     EDDAV:  cpu time    3.33: real time    3.33
       DOS:  cpu time    0.04: real time    0.03
    --------------------------------------------
      LOOP:  cpu time    3.37: real time    5.34

 eigenvalue-minimisations  :  4992
 total energy-change (2. order) :-0.5261209E+00  (-0.5219514E+00)
 number of electron       8.0000000 magnetization 
 augmentation part        8.0000000 magnetization 

 Free energy of the ion-electron system (eV)
  ---------------------------------------------------
  alpha Z        PSCENC =         3.24859208
  Ewald energy   TEWEN  =      -225.91599796
  -1/2 Hartree   DENC   =       -11.53190716
  -exchange  EXHF       =         0.00000000
  -V(xc)+E(xc)   XCENC  =       -20.29572212
  PAW double counting   =       189.40224250     -152.61488262
  entropy T*S    EENTRO =        -0.00000166
  eigenvalues    EBANDS =         0.70641103
  atomic energy  EATOM  =       208.59373829
  ---------------------------------------------------
  free energy    TOTEN  =        -8.40752762 eV

  energy without entropy =       -8.40752597  energy(sigma->0) =       -8.40752679


--------------------------------------------------------------------------------------------------------




----------------------------------------- Iteration    1(   4)  ---------------------------------------


     EDDAV:  cpu time    3.02: real time    3.02
       DOS:  cpu time    0.04: real time    0.04
    --------------------------------------------
      LOOP:  cpu time    3.07: real time    4.20

 eigenvalue-minimisations  :  4760
 total energy-change (2. order) :-0.1452315E-02  (-0.1452149E-02)
 number of electron       8.0000000 magnetization 
 augmentation part        8.0000000 magnetization 

 Free energy of the ion-electron system (eV)
  ---------------------------------------------------
  alpha Z        PSCENC =         3.24859208
  Ewald energy   TEWEN  =      -225.91599796
  -1/2 Hartree   DENC   =       -11.53190716
  -exchange  EXHF       =         0.00000000
  -V(xc)+E(xc)   XCENC  =       -20.29572212
  PAW double counting   =       189.40224250     -152.61488262
  entropy T*S    EENTRO =        -0.00000165
  eigenvalues    EBANDS =         0.70495871
  atomic energy  EATOM  =       208.59373829
  ---------------------------------------------------
  free energy    TOTEN  =        -8.40897994 eV

  energy without entropy =       -8.40897829  energy(sigma->0) =       -8.40897911


--------------------------------------------------------------------------------------------------------




----------------------------------------- Iteration    1(   5)  ---------------------------------------


     EDDAV:  cpu time    3.11: real time    3.11
       DOS:  cpu time    0.04: real time    0.03
    CHARGE:  cpu time    0.06: real time    0.08
    MIXING:  cpu time    0.00: real time    0.00
    --------------------------------------------
      LOOP:  cpu time    3.21: real time    3.75

 eigenvalue-minimisations  :  4800
 total energy-change (2. order) :-0.3673754E-05  (-0.3674212E-05)
 number of electron       7.9999999 magnetization 
 augmentation part       -0.4824688 magnetization 

 Broyden mixing:
  rms(total) = 0.36713E+00    rms(broyden)= 0.36713E+00
  rms(prec ) = 0.88320E+00
  weight for this iteration     100.00

 Free energy of the ion-electron system (eV)
  ---------------------------------------------------
  alpha Z        PSCENC =         3.24859208
  Ewald energy   TEWEN  =      -225.91599796
  -1/2 Hartree   DENC   =       -11.53190716
  -exchange  EXHF       =         0.00000000
  -V(xc)+E(xc)   XCENC  =       -20.29572212
  PAW double counting   =       189.40224250     -152.61488262
  entropy T*S    EENTRO =        -0.00000165
  eigenvalues    EBANDS =         0.70495504
  atomic energy  EATOM  =       208.59373829
  ---------------------------------------------------
  free energy    TOTEN  =        -8.40898361 eV

  energy without entropy =       -8.40898196  energy(sigma->0) =       -8.40898279


--------------------------------------------------------------------------------------------------------




----------------------------------------- Iteration    1(   6)  ---------------------------------------


    POTLOK:  cpu time    1.33: real time    1.33
    SETDIJ:  cpu time    0.00: real time    0.01
     EDDAV:  cpu time    2.99: real time    2.99
       DOS:  cpu time    0.04: real time    0.04
    CHARGE:  cpu time    0.04: real time    0.04
    MIXING:  cpu time    0.00: real time    0.00
    --------------------------------------------
      LOOP:  cpu time    4.40: real time    4.99

 eigenvalue-minimisations  :  4552
 total energy-change (2. order) : 0.4959801E-01  (-0.3266697E-02)
 number of electron       7.9999999 magnetization 
 augmentation part       -0.4760364 magnetization 

 Broyden mixing:
  rms(total) = 0.22443E+00    rms(broyden)= 0.22443E+00
  rms(prec ) = 0.53315E+00
  weight for this iteration     100.00

 eigenvalues of (default mixing * dielectric matrix)
  average eigenvalue GAMMA=   2.5582
  2.5582

 Free energy of the ion-electron system (eV)
  ---------------------------------------------------
  alpha Z        PSCENC =         3.24859208
  Ewald energy   TEWEN  =      -225.91599796
  -1/2 Hartree   DENC   =       -13.05588106
  -exchange  EXHF       =         0.00000000
  -V(xc)+E(xc)   XCENC  =       -20.06106220
  PAW double counting   =       304.70660685     -268.04714374
  entropy T*S    EENTRO =        -0.00000703
  eigenvalues    EBANDS =         2.17176918
  atomic energy  EATOM  =       208.59373829
  ---------------------------------------------------
  free energy    TOTEN  =        -8.35938560 eV

  energy without entropy =       -8.35937857  energy(sigma->0) =       -8.35938208


--------------------------------------------------------------------------------------------------------




----------------------------------------- Iteration    1(   7)  ---------------------------------------


    POTLOK:  cpu time    1.23: real time    1.44
    SETDIJ:  cpu time    0.00: real time    0.00
     EDDAV:  cpu time    2.94: real time    2.94
       DOS:  cpu time    0.04: real time    0.03
    CHARGE:  cpu time    0.04: real time    0.04
    MIXING:  cpu time    0.00: real time    0.00
    --------------------------------------------
      LOOP:  cpu time    4.25: real time    5.22

 eigenvalue-minimisations  :  4648
 total energy-change (2. order) : 0.5342428E-02  (-0.8129916E-02)
 number of electron       7.9999999 magnetization 
 augmentation part       -0.4670411 magnetization 

 Broyden mixing:
  rms(total) = 0.18009E-01    rms(broyden)= 0.18009E-01
  rms(prec ) = 0.47399E-01
  weight for this iteration     100.00

 eigenvalues of (default mixing * dielectric matrix)
  average eigenvalue GAMMA=   2.4465
  2.4465  2.4465

 Free energy of the ion-electron system (eV)
  ---------------------------------------------------
  alpha Z        PSCENC =         3.24859208
  Ewald energy   TEWEN  =      -225.91599796
  -1/2 Hartree   DENC   =       -15.63461486
  -exchange  EXHF       =         0.00000000
  -V(xc)+E(xc)   XCENC  =       -19.64246648
  PAW double counting   =       542.65681983     -506.16442850
  entropy T*S    EENTRO =        -0.00005018
  eigenvalues    EBANDS =         4.50436462
  atomic energy  EATOM  =       208.59373829
  ---------------------------------------------------
  free energy    TOTEN  =        -8.35404317 eV

  energy without entropy =       -8.35399299  energy(sigma->0) =       -8.35401808


--------------------------------------------------------------------------------------------------------




----------------------------------------- Iteration    1(   8)  ---------------------------------------


    POTLOK:  cpu time    1.25: real time    1.25
    SETDIJ:  cpu time    0.00: real time    0.00
     EDDAV:  cpu time    2.81: real time    2.81
       DOS:  cpu time    0.04: real time    0.03
    CHARGE:  cpu time    0.04: real time    0.05
    MIXING:  cpu time    0.00: real time    0.00
    --------------------------------------------
      LOOP:  cpu time    4.14: real time    4.55

 eigenvalue-minimisations  :  4428
 total energy-change (2. order) : 0.1729175E-01  (-0.4116245E-03)
 number of electron       7.9999999 magnetization 
 augmentation part       -0.4681809 magnetization 

 Broyden mixing:
  rms(total) = 0.11135E-01    rms(broyden)= 0.11135E-01
  rms(prec ) = 0.26223E-01
  weight for this iteration     100.00

 eigenvalues of (default mixing * dielectric matrix)
  average eigenvalue GAMMA=   2.0351
  2.8219  1.4153  1.8680

 Free energy of the ion-electron system (eV)
  ---------------------------------------------------
  alpha Z        PSCENC =         3.24859208
  Ewald energy   TEWEN  =      -225.91599796
  -1/2 Hartree   DENC   =       -15.39104679
  -exchange  EXHF       =         0.00000000
  -V(xc)+E(xc)   XCENC  =       -19.65972291
  PAW double counting   =       520.54291265     -483.98291604
  entropy T*S    EENTRO =        -0.00003425
  eigenvalues    EBANDS =         4.22772351
  atomic energy  EATOM  =       208.59373829
  ---------------------------------------------------
  free energy    TOTEN  =        -8.33675142 eV

  energy without entropy =       -8.33671717  energy(sigma->0) =       -8.33673430


--------------------------------------------------------------------------------------------------------




----------------------------------------- Iteration    1(   9)  ---------------------------------------


    POTLOK:  cpu time    1.27: real time    1.27
    SETDIJ:  cpu time    0.00: real time    0.00
     EDDAV:  cpu time    3.07: real time    3.07
       DOS:  cpu time    0.04: real time    0.03
    CHARGE:  cpu time    0.04: real time    0.03
    MIXING:  cpu time    0.00: real time    0.00
    --------------------------------------------
      LOOP:  cpu time    4.42: real time    4.77

 eigenvalue-minimisations  :  4844
 total energy-change (2. order) :-0.1864354E-02  (-0.2843598E-04)
 number of electron       7.9999999 magnetization 
 augmentation part       -0.4678509 magnetization 

 Broyden mixing:
  rms(total) = 0.62079E-02    rms(broyden)= 0.62079E-02
  rms(prec ) = 0.72252E-02
  weight for this iteration     100.00

 eigenvalues of (default mixing * dielectric matrix)
  average eigenvalue GAMMA=   2.3029
  2.8507  2.7217  2.7217  0.9176

 Free energy of the ion-electron system (eV)
  ---------------------------------------------------
  alpha Z        PSCENC =         3.24859208
  Ewald energy   TEWEN  =      -225.91599796
  -1/2 Hartree   DENC   =       -15.54432213
  -exchange  EXHF       =         0.00000000
  -V(xc)+E(xc)   XCENC  =       -19.63467580
  PAW double counting   =       531.64933193     -495.09924570
  entropy T*S    EENTRO =        -0.00003802
  eigenvalues    EBANDS =         4.36400154
  atomic energy  EATOM  =       208.59373829
  ---------------------------------------------------
  free energy    TOTEN  =        -8.33861578 eV

  energy without entropy =       -8.33857776  energy(sigma->0) =       -8.33859677


--------------------------------------------------------------------------------------------------------




----------------------------------------- Iteration    1(  10)  ---------------------------------------


    POTLOK:  cpu time    1.23: real time    1.23
    SETDIJ:  cpu time    0.00: real time    0.00
     EDDAV:  cpu time    2.42: real time    2.42
       DOS:  cpu time    0.03: real time    0.03
    CHARGE:  cpu time    0.06: real time    0.06
    MIXING:  cpu time    0.00: real time    0.00
    --------------------------------------------
      LOOP:  cpu time    3.74: real time    5.30

 eigenvalue-minimisations  :  4552
 total energy-change (2. order) : 0.7543160E-04  (-0.1859687E-05)
 number of electron       7.9999999 magnetization 
 augmentation part       -0.4678408 magnetization 

 Broyden mixing:
  rms(total) = 0.11144E-02    rms(broyden)= 0.11144E-02
  rms(prec ) = 0.14408E-02
  weight for this iteration     100.00

 eigenvalues of (default mixing * dielectric matrix)
  average eigenvalue GAMMA=   1.9300
  2.9597  2.5885  2.2399  0.9310  0.9310

 Free energy of the ion-electron system (eV)
  ---------------------------------------------------
  alpha Z        PSCENC =         3.24859208
  Ewald energy   TEWEN  =      -225.91599796
  -1/2 Hartree   DENC   =       -15.53425754
  -exchange  EXHF       =         0.00000000
  -V(xc)+E(xc)   XCENC  =       -19.63670212
  PAW double counting   =       522.26785653     -485.71699209
  entropy T*S    EENTRO =        -0.00003756
  eigenvalues    EBANDS =         4.35526004
  atomic energy  EATOM  =       208.59373829
  ---------------------------------------------------
  free energy    TOTEN  =        -8.33854034 eV

  energy without entropy =       -8.33850278  energy(sigma->0) =       -8.33852156


--------------------------------------------------------------------------------------------------------




----------------------------------------- Iteration    1(  11)  ---------------------------------------


    POTLOK:  cpu time    1.24: real time    1.24
    SETDIJ:  cpu time    0.00: real time    0.01
     EDDAV:  cpu time    3.05: real time    3.05
       DOS:  cpu time    0.04: real time    0.03
    CHARGE:  cpu time    0.03: real time    0.03
    MIXING:  cpu time    0.00: real time    0.00
    --------------------------------------------
      LOOP:  cpu time    4.36: real time    4.88

 eigenvalue-minimisations  :  4852
 total energy-change (2. order) : 0.3248303E-03  (-0.7457893E-07)
 number of electron       7.9999999 magnetization 
 augmentation part       -0.4678690 magnetization 

 Broyden mixing:
  rms(total) = 0.23470E-03    rms(broyden)= 0.23470E-03
  rms(prec ) = 0.29265E-03
  weight for this iteration     100.00

 eigenvalues of (default mixing * dielectric matrix)
  average eigenvalue GAMMA=   1.8403
  2.9494  2.4598  2.2094  0.8990  1.0708  1.4534

 Free energy of the ion-electron system (eV)
  ---------------------------------------------------
  alpha Z        PSCENC =         3.24859208
  Ewald energy   TEWEN  =      -225.91599796
  -1/2 Hartree   DENC   =       -15.53267622
  -exchange  EXHF       =         0.00000000
  -V(xc)+E(xc)   XCENC  =       -19.63646583
  PAW double counting   =       523.08431420     -486.53232093
  entropy T*S    EENTRO =        -0.00003737
  eigenvalues    EBANDS =         4.35263824
  atomic energy  EATOM  =       208.59373829
  ---------------------------------------------------
  free energy    TOTEN  =        -8.33821551 eV

  energy without entropy =       -8.33817814  energy(sigma->0) =       -8.33819683


--------------------------------------------------------------------------------------------------------




----------------------------------------- Iteration    1(  12)  ---------------------------------------


    POTLOK:  cpu time    1.31: real time    1.31
    SETDIJ:  cpu time    0.00: real time    0.00
     EDDAV:  cpu time    2.78: real time    2.78
       DOS:  cpu time    0.03: real time    0.03
    CHARGE:  cpu time    0.04: real time    0.04
    MIXING:  cpu time    0.00: real time    0.00
    --------------------------------------------
      LOOP:  cpu time    4.17: real time    4.48

 eigenvalue-minimisations  :  4436
 total energy-change (2. order) : 0.2980422E-04  (-0.2443950E-08)
 number of electron       7.9999999 magnetization 
 augmentation part       -0.4678706 magnetization 

 Broyden mixing:
  rms(total) = 0.12364E-03    rms(broyden)= 0.12364E-03
  rms(prec ) = 0.18221E-03
  weight for this iteration     100.00

 eigenvalues of (default mixing * dielectric matrix)
  average eigenvalue GAMMA=   1.9400
  3.0505  2.7723  2.6227  2.2048  1.0062  0.9616  0.9616

 Free energy of the ion-electron system (eV)
  ---------------------------------------------------
  alpha Z        PSCENC =         3.24859208
  Ewald energy   TEWEN  =      -225.91599796
  -1/2 Hartree   DENC   =       -15.53300183
  -exchange  EXHF       =         0.00000000
  -V(xc)+E(xc)   XCENC  =       -19.63639583
  PAW double counting   =       523.42118701     -486.86911408
  entropy T*S    EENTRO =        -0.00003736
  eigenvalues    EBANDS =         4.35284397
  atomic energy  EATOM  =       208.59373829
  ---------------------------------------------------
  free energy    TOTEN  =        -8.33818571 eV

  energy without entropy =       -8.33814835  energy(sigma->0) =       -8.33816703


--------------------------------------------------------------------------------------------------------




----------------------------------------- Iteration    1(  13)  ---------------------------------------


    POTLOK:  cpu time    1.26: real time    1.27
    SETDIJ:  cpu time    0.00: real time    0.00
     EDDAV:  cpu time    2.68: real time    2.84
       DOS:  cpu time    0.04: real time    0.03
    CHARGE:  cpu time    0.04: real time    0.04
    MIXING:  cpu time    0.00: real time    0.00
    --------------------------------------------
      LOOP:  cpu time    4.02: real time    4.40

 eigenvalue-minimisations  :  3872
 total energy-change (2. order) : 0.1335015E-04  (-0.7547195E-09)
 number of electron       7.9999999 magnetization 
 augmentation part       -0.4678718 magnetization 

 Broyden mixing:
  rms(total) = 0.11222E-04    rms(broyden)= 0.11222E-04
  rms(prec ) = 0.13518E-04
  weight for this iteration     100.00

 eigenvalues of (default mixing * dielectric matrix)
  average eigenvalue GAMMA=   1.9143
  2.8853  2.7528  2.6714  2.1495  1.9157  1.0054  1.0054  0.9290

 Free energy of the ion-electron system (eV)
  ---------------------------------------------------
  alpha Z        PSCENC =         3.24859208
  Ewald energy   TEWEN  =      -225.91599796
  -1/2 Hartree   DENC   =       -15.53261905
  -exchange  EXHF       =         0.00000000
  -V(xc)+E(xc)   XCENC  =       -19.63646746
  PAW double counting   =       523.25435963     -486.70223073
  entropy T*S    EENTRO =        -0.00003734
  eigenvalues    EBANDS =         4.35249018
  atomic energy  EATOM  =       208.59373829
  ---------------------------------------------------
  free energy    TOTEN  =        -8.33817236 eV

  energy without entropy =       -8.33813502  energy(sigma->0) =       -8.33815369


--------------------------------------------------------------------------------------------------------




----------------------------------------- Iteration    1(  14)  ---------------------------------------


    POTLOK:  cpu time    1.29: real time    1.37
    SETDIJ:  cpu time    0.00: real time    0.00
     EDDAV:  cpu time    1.99: real time    1.99
       DOS:  cpu time    0.04: real time    0.03
    CHARGE:  cpu time    0.04: real time    0.04
    MIXING:  cpu time    0.00: real time    0.00
    --------------------------------------------
      LOOP:  cpu time    3.36: real time    3.66

 eigenvalue-minimisations  :  2496
 total energy-change (2. order) :-0.1110068E-05  (-0.2808284E-10)
 number of electron       7.9999999 magnetization 
 augmentation part       -0.4678718 magnetization 

 Broyden mixing:
  rms(total) = 0.71366E-05    rms(broyden)= 0.71366E-05
  rms(prec ) = 0.80761E-05
  weight for this iteration     100.00

 eigenvalues of (default mixing * dielectric matrix)
  average eigenvalue GAMMA=   1.8901
  2.9726  2.9726  2.5558  2.3541  2.1906  1.0526  0.9718  0.9718  0.9695

 Free energy of the ion-electron system (eV)
  ---------------------------------------------------
  alpha Z        PSCENC =         3.24859208
  Ewald energy   TEWEN  =      -225.91599796
  -1/2 Hartree   DENC   =       -15.53261682
  -exchange  EXHF       =         0.00000000
  -V(xc)+E(xc)   XCENC  =       -19.63647096
  PAW double counting   =       523.24838046     -486.69625579
  entropy T*S    EENTRO =        -0.00003734
  eigenvalues    EBANDS =         4.35249457
  atomic energy  EATOM  =       208.59373829
  ---------------------------------------------------
  free energy    TOTEN  =        -8.33817347 eV

  energy without entropy =       -8.33813613  energy(sigma->0) =       -8.33815480


--------------------------------------------------------------------------------------------------------




----------------------------------------- Iteration    1(  15)  ---------------------------------------


    POTLOK:  cpu time    1.27: real time    1.27
    SETDIJ:  cpu time    0.00: real time    0.00
     EDDAV:  cpu time    1.91: real time    1.91
       DOS:  cpu time    0.03: real time    0.03
    CHARGE:  cpu time    0.04: real time    0.04
    MIXING:  cpu time    0.00: real time    0.00
    --------------------------------------------
      LOOP:  cpu time    3.26: real time    4.70

 eigenvalue-minimisations  :  2444
 total energy-change (2. order) : 0.1751231E-06  (-0.3566606E-11)
 number of electron       7.9999999 magnetization 
 augmentation part       -0.4678718 magnetization 

 Broyden mixing:
  rms(total) = 0.61449E-06    rms(broyden)= 0.61449E-06
  rms(prec ) = 0.81850E-06
  weight for this iteration     100.00

 eigenvalues of (default mixing * dielectric matrix)
  average eigenvalue GAMMA=   1.8902
  3.1089  2.8819  2.8819  2.4973  2.1917  1.4447  1.0349  0.9824  0.9392  0.9392

 Free energy of the ion-electron system (eV)
  ---------------------------------------------------
  alpha Z        PSCENC =         3.24859208
  Ewald energy   TEWEN  =      -225.91599796
  -1/2 Hartree   DENC   =       -15.53260672
  -exchange  EXHF       =         0.00000000
  -V(xc)+E(xc)   XCENC  =       -19.63647470
  PAW double counting   =       523.23710860     -486.68498358
  entropy T*S    EENTRO =        -0.00003734
  eigenvalues    EBANDS =         4.35248804
  atomic energy  EATOM  =       208.59373829
  ---------------------------------------------------
  free energy    TOTEN  =        -8.33817329 eV

  energy without entropy =       -8.33813595  energy(sigma->0) =       -8.33815462


--------------------------------------------------------------------------------------------------------




----------------------------------------- Iteration    1(  16)  ---------------------------------------


    POTLOK:  cpu time    1.25: real time    1.25
    SETDIJ:  cpu time    0.00: real time    0.00
     EDDAV:  cpu time    1.84: real time    1.84
       DOS:  cpu time    0.04: real time    0.03
    CHARGE:  cpu time    0.04: real time    0.04
    MIXING:  cpu time    0.00: real time    0.00
    --------------------------------------------
      LOOP:  cpu time    3.16: real time    3.38

 eigenvalue-minimisations  :  2380
 total energy-change (2. order) : 0.1807270E-06  (-0.3548143E-12)
 number of electron       7.9999999 magnetization 
 augmentation part       -0.4678718 magnetization 

 Broyden mixing:
  rms(total) = 0.19534E-06    rms(broyden)= 0.19534E-06
  rms(prec ) = 0.28098E-06
  weight for this iteration     100.00

 eigenvalues of (default mixing * dielectric matrix)
  average eigenvalue GAMMA=   1.8938
  3.0028  2.9874  2.9874  2.1679  2.4206  2.3657  1.0589  0.9668  0.9408  0.9668
  0.9668

 Free energy of the ion-electron system (eV)
  ---------------------------------------------------
  alpha Z        PSCENC =         3.24859208
  Ewald energy   TEWEN  =      -225.91599796
  -1/2 Hartree   DENC   =       -15.53260580
  -exchange  EXHF       =         0.00000000
  -V(xc)+E(xc)   XCENC  =       -19.63647493
  PAW double counting   =       523.23622220     -486.68409665
  entropy T*S    EENTRO =        -0.00003734
  eigenvalues    EBANDS =         4.35248700
  atomic energy  EATOM  =       208.59373829
  ---------------------------------------------------
  free energy    TOTEN  =        -8.33817311 eV

  energy without entropy =       -8.33813577  energy(sigma->0) =       -8.33815444


--------------------------------------------------------------------------------------------------------




----------------------------------------- Iteration    1(  17)  ---------------------------------------


    POTLOK:  cpu time    1.26: real time    1.26
    SETDIJ:  cpu time    0.00: real time    0.00
     EDDAV:  cpu time    1.89: real time    1.89
[...]
   36.049853    0.813446    0.813445    0.813446    0.000000    0.000000    0.000000
   36.176789    0.815709    0.815709    0.815709    0.000000    0.000000    0.000000
   36.303725    0.816780    0.816780    0.816780    0.000000    0.000000    0.000000
   36.430661    0.816856    0.816856    0.816856    0.000000    0.000000    0.000000
   36.557597    0.816751    0.816751    0.816751    0.000000    0.000000    0.000000
   36.684533    0.817105    0.817105    0.817105    0.000000    0.000000    0.000000
   36.811469    0.817957    0.817957    0.817957    0.000000    0.000000    0.000000
   36.938405    0.818616    0.818616    0.818616    0.000000    0.000000    0.000000
   37.065341    0.819163    0.819163    0.819163    0.000000    0.000000    0.000000
   37.192278    0.820346    0.820346    0.820346    0.000000    0.000000    0.000000
   37.319214    0.821752    0.821752    0.821752    0.000000    0.000000    0.000000
   37.446150    0.822742    0.822742    0.822742    0.000000    0.000000    0.000000
   37.573086    0.823378    0.823378    0.823378    0.000000    0.000000    0.000000
   37.700022    0.823532    0.823532    0.823532    0.000000    0.000000    0.000000
   37.826958    0.823541    0.823541    0.823541    0.000000    0.000000    0.000000
   37.953894    0.824124    0.824123    0.824124    0.000000    0.000000    0.000000
   38.080830    0.824951    0.824951    0.824951    0.000000    0.000000    0.000000
   38.207766    0.825298    0.825298    0.825298    0.000000    0.000000    0.000000
   38.334702    0.825386    0.825386    0.825386    0.000000    0.000000    0.000000
   38.461639    0.826166    0.826166    0.826166    0.000000    0.000000    0.000000
   38.588575    0.828138    0.828138    0.828138    0.000000    0.000000    0.000000
   38.715511    0.830281    0.830281    0.830281    0.000000    0.000000    0.000000
   38.842447    0.831264    0.831264    0.831264    0.000000    0.000000    0.000000
   38.969383    0.831468    0.831468    0.831468    0.000000    0.000000    0.000000
   39.096319    0.832059    0.832059    0.832059    0.000000    0.000000    0.000000
   39.223255    0.833019    0.833019    0.833019    0.000000    0.000000    0.000000
   39.350191    0.833827    0.833827    0.833827    0.000000    0.000000    0.000000
   39.477127    0.834556    0.834556    0.834556    0.000000    0.000000    0.000000
   39.604063    0.835442    0.835441    0.835442    0.000000    0.000000    0.000000
   39.731000    0.836593    0.836593    0.836593    0.000000    0.000000    0.000000
   39.857936    0.837750    0.837750    0.837750    0.000000    0.000000    0.000000
   39.984872    0.838531    0.838531    0.838531    0.000000    0.000000    0.000000
   40.111808    0.839013    0.839013    0.839013    0.000000    0.000000    0.000000
   40.238744    0.839346    0.839346    0.839346    0.000000    0.000000    0.000000
   40.365680    0.839762    0.839762    0.839762    0.000000    0.000000    0.000000
   40.492616    0.840516    0.840516    0.840516    0.000000    0.000000    0.000000
   40.619552    0.841610    0.841610    0.841610    0.000000    0.000000    0.000000
   40.746488    0.842864    0.842864    0.842864    0.000000    0.000000    0.000000
   40.873424    0.844173    0.844173    0.844173    0.000000    0.000000    0.000000
   41.000361    0.845521    0.845521    0.845521    0.000000    0.000000    0.000000
   41.127297    0.846670    0.846670    0.846670    0.000000    0.000000    0.000000
   41.254233    0.847445    0.847445    0.847445    0.000000    0.000000    0.000000
   41.381169    0.847978    0.847978    0.847978    0.000000    0.000000    0.000000
   41.508105    0.848384    0.848384    0.848384    0.000000    0.000000    0.000000
   41.635041    0.848751    0.848751    0.848751    0.000000    0.000000    0.000000
   41.761977    0.849241    0.849241    0.849241    0.000000    0.000000    0.000000
   41.888913    0.849905    0.849905    0.849905    0.000000    0.000000    0.000000
   42.015849    0.850879    0.850879    0.850879    0.000000    0.000000    0.000000
   42.142785    0.852191    0.852191    0.852191    0.000000    0.000000    0.000000
   42.269722    0.853533    0.853533    0.853533    0.000000    0.000000    0.000000
   42.396658    0.854665    0.854665    0.854665    0.000000    0.000000    0.000000
   42.523594    0.855556    0.855556    0.855556    0.000000    0.000000    0.000000
   42.650530    0.856251    0.856251    0.856251    0.000000    0.000000    0.000000
   42.777466    0.856942    0.856942    0.856942    0.000000    0.000000    0.000000
   42.904402    0.857783    0.857783    0.857783    0.000000    0.000000    0.000000
   43.031338    0.858838    0.858837    0.858838    0.000000    0.000000    0.000000
   43.158274    0.860010    0.860010    0.860010    0.000000    0.000000    0.000000
   43.285210    0.861151    0.861151    0.861151    0.000000    0.000000    0.000000
   43.412146    0.862356    0.862356    0.862356    0.000000    0.000000    0.000000
   43.539083    0.863677    0.863676    0.863677    0.000000    0.000000    0.000000
   43.666019    0.864855    0.864855    0.864855    0.000000    0.000000    0.000000
   43.792955    0.865449    0.865449    0.865449    0.000000    0.000000    0.000000
   43.919891    0.865338    0.865338    0.865338    0.000000    0.000000    0.000000
   44.046827    0.865206    0.865205    0.865206    0.000000    0.000000    0.000000
   44.173763    0.865721    0.865721    0.865721    0.000000    0.000000    0.000000
   44.300699    0.866627    0.866627    0.866627    0.000000    0.000000    0.000000
   44.427635    0.867527    0.867527    0.867527    0.000000    0.000000    0.000000
   44.554571    0.868471    0.868471    0.868471    0.000000    0.000000    0.000000
   44.681508    0.869560    0.869560    0.869560    0.000000    0.000000    0.000000
   44.808444    0.870711    0.870711    0.870711    0.000000    0.000000    0.000000
   44.935380    0.871772    0.871771    0.871771    0.000000    0.000000    0.000000
   45.062316    0.872595    0.872595    0.872595    0.000000    0.000000    0.000000
   45.189252    0.873257    0.873257    0.873257    0.000000    0.000000    0.000000
   45.316188    0.873964    0.873963    0.873964    0.000000    0.000000    0.000000
   45.443124    0.874658    0.874658    0.874658    0.000000    0.000000    0.000000
   45.570060    0.875195    0.875195    0.875195    0.000000    0.000000    0.000000
   45.696996    0.875738    0.875738    0.875738    0.000000    0.000000    0.000000
   45.823932    0.876592    0.876592    0.876592    0.000000    0.000000    0.000000
   45.950869    0.877652    0.877652    0.877652    0.000000    0.000000    0.000000
   46.077805    0.878496    0.878496    0.878496    0.000000    0.000000    0.000000
   46.204741    0.878926    0.878926    0.878926    0.000000    0.000000    0.000000
   46.331677    0.879110    0.879110    0.879110    0.000000    0.000000    0.000000
   46.458613    0.879321    0.879321    0.879321    0.000000    0.000000    0.000000
   46.585549    0.879784    0.879784    0.879784    0.000000    0.000000    0.000000
   46.712485    0.880560    0.880560    0.880560    0.000000    0.000000    0.000000
   46.839421    0.881501    0.881501    0.881501    0.000000    0.000000    0.000000
   46.966357    0.882362    0.882362    0.882362    0.000000    0.000000    0.000000
   47.093293    0.882991    0.882991    0.882991    0.000000    0.000000    0.000000
   47.220230    0.883464    0.883464    0.883464    0.000000    0.000000    0.000000
   47.347166    0.883885    0.883885    0.883885    0.000000    0.000000    0.000000
   47.474102    0.884361    0.884361    0.884361    0.000000    0.000000    0.000000
   47.601038    0.885092    0.885092    0.885092    0.000000    0.000000    0.000000
   47.727974    0.886084    0.886084    0.886084    0.000000    0.000000    0.000000
   47.854910    0.887070    0.887069    0.887070    0.000000    0.000000    0.000000
   47.981846    0.887881    0.887881    0.887881    0.000000    0.000000    0.000000
   48.108782    0.888617    0.888617    0.888617    0.000000    0.000000    0.000000
   48.235718    0.889341    0.889341    0.889341    0.000000    0.000000    0.000000
   48.362654    0.889966    0.889966    0.889966    0.000000    0.000000    0.000000
   48.489591    0.890465    0.890465    0.890465    0.000000    0.000000    0.000000
   48.616527    0.890933    0.890933    0.890933    0.000000    0.000000    0.000000
   48.743463    0.891419    0.891419    0.891419    0.000000    0.000000    0.000000
   48.870399    0.891932    0.891932    0.891932    0.000000    0.000000    0.000000
   48.997335    0.892520    0.892520    0.892520    0.000000    0.000000    0.000000
   49.124271    0.893170    0.893170    0.893170    0.000000    0.000000    0.000000
   49.251207    0.893821    0.893821    0.893821    0.000000    0.000000    0.000000
   49.378143    0.894450    0.894450    0.894450    0.000000    0.000000    0.000000
   49.505079    0.895026    0.895026    0.895026    0.000000    0.000000    0.000000
   49.632015    0.895575    0.895574    0.895575    0.000000    0.000000    0.000000
   49.758952    0.896151    0.896151    0.896151    0.000000    0.000000    0.000000
   49.885888    0.896650    0.896650    0.896650    0.000000    0.000000    0.000000
   50.012824    0.897012    0.897012    0.897012    0.000000    0.000000    0.000000
   50.139760    0.897449    0.897449    0.897449    0.000000    0.000000    0.000000
   50.266696    0.898065    0.898065    0.898065    0.000000    0.000000    0.000000
   50.393632    0.898728    0.898728    0.898728    0.000000    0.000000    0.000000
   50.520568    0.899330    0.899330    0.899330    0.000000    0.000000    0.000000
   50.647504    0.899875    0.899875    0.899875    0.000000    0.000000    0.000000
   50.774440    0.900403    0.900403    0.900403    0.000000    0.000000    0.000000
   50.901376    0.900951    0.900951    0.900951    0.000000    0.000000    0.000000
   51.028313    0.901533    0.901533    0.901533    0.000000    0.000000    0.000000
   51.155249    0.902133    0.902133    0.902133    0.000000    0.000000    0.000000
   51.282185    0.902729    0.902729    0.902729    0.000000    0.000000    0.000000
   51.409121    0.903311    0.903311    0.903311    0.000000    0.000000    0.000000
   51.536057    0.903879    0.903878    0.903879    0.000000    0.000000    0.000000
   51.662993    0.904433    0.904433    0.904433    0.000000    0.000000    0.000000
   51.789929    0.904976    0.904976    0.904976    0.000000    0.000000    0.000000
   51.916865    0.905504    0.905504    0.905504    0.000000    0.000000    0.000000
   52.043801    0.906015    0.906015    0.906015    0.000000    0.000000    0.000000
   52.170737    0.906518    0.906518    0.906518    0.000000    0.000000    0.000000
   52.297674    0.907021    0.907021    0.907021    0.000000    0.000000    0.000000
   52.424610    0.907522    0.907522    0.907522    0.000000    0.000000    0.000000
   52.551546    0.908018    0.908018    0.908018    0.000000    0.000000    0.000000
   52.678482    0.908509    0.908508    0.908509    0.000000    0.000000    0.000000
   52.805418    0.908994    0.908994    0.908994    0.000000    0.000000    0.000000
   52.932354    0.909474    0.909474    0.909474    0.000000    0.000000    0.000000
   53.059290    0.909949    0.909949    0.909949    0.000000    0.000000    0.000000
   53.186226    0.910419    0.910419    0.910419    0.000000    0.000000    0.000000
   53.313162    0.910885    0.910884    0.910885    0.000000    0.000000    0.000000
   53.440098    0.911345    0.911345    0.911345    0.000000    0.000000    0.000000
   53.567035    0.911801    0.911801    0.911801    0.000000    0.000000    0.000000
   53.693971    0.912253    0.912253    0.912253    0.000000    0.000000    0.000000
   53.820907    0.912700    0.912700    0.912700    0.000000    0.000000    0.000000
   53.947843    0.913143    0.913143    0.913143    0.000000    0.000000    0.000000
   54.074779    0.913583    0.913583    0.913583    0.000000    0.000000    0.000000
   54.201715    0.914018    0.914018    0.914018    0.000000    0.000000    0.000000
   54.328651    0.914449    0.914449    0.914449    0.000000    0.000000    0.000000
   54.455587    0.914877    0.914877    0.914877    0.000000    0.000000    0.000000
   54.582523    0.915301    0.915301    0.915301    0.000000    0.000000    0.000000
   54.709459    0.915721    0.915721    0.915721    0.000000    0.000000    0.000000
   54.836396    0.916138    0.916138    0.916138    0.000000    0.000000    0.000000
   54.963332    0.916551    0.916551    0.916551    0.000000    0.000000    0.000000
   55.090268    0.916961    0.916961    0.916961    0.000000    0.000000    0.000000
   55.217204    0.917367    0.917367    0.917367    0.000000    0.000000    0.000000
   55.344140    0.917770    0.917770    0.917770    0.000000    0.000000    0.000000
   55.471076    0.918170    0.918170    0.918170    0.000000    0.000000    0.000000
   55.598012    0.918566    0.918566    0.918566    0.000000    0.000000    0.000000
   55.724948    0.918960    0.918960    0.918960    0.000000    0.000000    0.000000
   55.851884    0.919350    0.919350    0.919350    0.000000    0.000000    0.000000
   55.978820    0.919737    0.919737    0.919737    0.000000    0.000000    0.000000
   56.105757    0.920121    0.920121    0.920121    0.000000    0.000000    0.000000
   56.232693    0.920502    0.920502    0.920502    0.000000    0.000000    0.000000
   56.359629    0.920880    0.920880    0.920880    0.000000    0.000000    0.000000
   56.486565    0.921255    0.921255    0.921255    0.000000    0.000000    0.000000
   56.613501    0.921628    0.921628    0.921628    0.000000    0.000000    0.000000
   56.740437    0.921997    0.921997    0.921997    0.000000    0.000000    0.000000
   56.867373    0.922364    0.922364    0.922364    0.000000    0.000000    0.000000
   56.994309    0.922727    0.922727    0.922727    0.000000    0.000000    0.000000
   57.121245    0.923088    0.923088    0.923088    0.000000    0.000000    0.000000
   57.248181    0.923447    0.923447    0.923447    0.000000    0.000000    0.000000
   57.375118    0.923802    0.923802    0.923802    0.000000    0.000000    0.000000
   57.502054    0.924155    0.924155    0.924155    0.000000    0.000000    0.000000
   57.628990    0.924506    0.924506    0.924506    0.000000    0.000000    0.000000
   57.755926    0.924854    0.924854    0.924854    0.000000    0.000000    0.000000
   57.882862    0.925199    0.925199    0.925199    0.000000    0.000000    0.000000
   58.009798    0.925542    0.925542    0.925542    0.000000    0.000000    0.000000
   58.136734    0.925882    0.925882    0.925882    0.000000    0.000000    0.000000
   58.263670    0.926219    0.926219    0.926219    0.000000    0.000000    0.000000
   58.390606    0.926555    0.926555    0.926555    0.000000    0.000000    0.000000
   58.517542    0.926888    0.926888    0.926888    0.000000    0.000000    0.000000
   58.644479    0.927218    0.927218    0.927218    0.000000    0.000000    0.000000
   58.771415    0.927547    0.927547    0.927547    0.000000    0.000000    0.000000
   58.898351    0.927872    0.927872    0.927872    0.000000    0.000000    0.000000
   59.025287    0.928196    0.928196    0.928196    0.000000    0.000000    0.000000
   59.152223    0.928517    0.928517    0.928517    0.000000    0.000000    0.000000
   59.279159    0.928836    0.928836    0.928836    0.000000    0.000000    0.000000
   59.406095    0.929153    0.929153    0.929153    0.000000    0.000000    0.000000
   59.533031    0.929468    0.929468    0.929468    0.000000    0.000000    0.000000
   59.659967    0.929780    0.929780    0.929780    0.000000    0.000000    0.000000
   59.786904    0.930090    0.930090    0.930090    0.000000    0.000000    0.000000
   59.913840    0.930398    0.930398    0.930398    0.000000    0.000000    0.000000
   60.040776    0.930704    0.930704    0.930704    0.000000    0.000000    0.000000
   60.167712    0.931008    0.931008    0.931008    0.000000    0.000000    0.000000
   60.294648    0.931309    0.931309    0.931309    0.000000    0.000000    0.000000
   60.421584    0.931609    0.931609    0.931609    0.000000    0.000000    0.000000
   60.548520    0.931907    0.931907    0.931907    0.000000    0.000000    0.000000
   60.675456    0.932202    0.932202    0.932202    0.000000    0.000000    0.000000
   60.802392    0.932496    0.932496    0.932496    0.000000    0.000000    0.000000
   60.929328    0.932788    0.932787    0.932788    0.000000    0.000000    0.000000
   61.056265    0.933077    0.933077    0.933077    0.000000    0.000000    0.000000
   61.183201    0.933365    0.933365    0.933365    0.000000    0.000000    0.000000
   61.310137    0.933651    0.933651    0.933651    0.000000    0.000000    0.000000
   61.437073    0.933935    0.933935    0.933935    0.000000    0.000000    0.000000
   61.564009    0.934217    0.934217    0.934217    0.000000    0.000000    0.000000
   61.690945    0.934497    0.934497    0.934497    0.000000    0.000000    0.000000
   61.817881    0.934775    0.934775    0.934775    0.000000    0.000000    0.000000
   61.944817    0.935052    0.935052    0.935052    0.000000    0.000000    0.000000
   62.071753    0.935326    0.935326    0.935326    0.000000    0.000000    0.000000
   62.198689    0.935599    0.935599    0.935599    0.000000    0.000000    0.000000
   62.325626    0.935870    0.935870    0.935870    0.000000    0.000000    0.000000
   62.452562    0.936140    0.936140    0.936140    0.000000    0.000000    0.000000
   62.579498    0.936407    0.936407    0.936407    0.000000    0.000000    0.000000
   62.706434    0.936673    0.936673    0.936673    0.000000    0.000000    0.000000
   62.833370    0.936937    0.936937    0.936937    0.000000    0.000000    0.000000
   62.960306    0.937200    0.937200    0.937200    0.000000    0.000000    0.000000
   63.087242    0.937461    0.937461    0.937461    0.000000    0.000000    0.000000
   63.214178    0.937720    0.937720    0.937720    0.000000    0.000000    0.000000
   63.341114    0.937977    0.937977    0.937977    0.000000    0.000000    0.000000
 
 The outermost node in the dielectric function lies at epsilon=  16.4


--------------------------------------------------------------------------------------------------------


    OPTICS:  cpu time   16.65: real time   18.21
    4ORBIT:  cpu time    0.00: real time    0.00
 


 total charge     
 
# of ion     s       p       d       tot
----------------------------------------
  1        0.733   0.909   0.000   1.642
  2        0.733   0.909   0.000   1.642
------------------------------------------------
tot        1.466   1.818   0.000   3.284
 

 total amount of memory used by VASP on root node    34716. kBytes
========================================================================

   base      :      30000. kBytes
   nonl-proj :        998. kBytes
   fftplans  :        586. kBytes
   grid      :        839. kBytes
   one-center:          3. kBytes
   wavefun   :       2290. kBytes
 
  
  
 General timing and accounting informations for this job:
 ========================================================
  
                  Total CPU time used (sec):       92.378
                            User time (sec):       91.990
                          System time (sec):        0.388
                         Elapsed time (sec):      114.028
  
                   Maximum memory used (kb):      105684.
                   Average memory used (kb):           0.
  
                          Minor page faults:        27964
                          Major page faults:            5
                 Voluntary context switches:          800
