 running on   16 total cores
 distrk:  each k-point on   16 cores,    1 groups
 distr:  one band on    4 cores,    4 groups
 using from now: INCAR     
 vasp.5.3.3 18Dez12 (build Jan 30 2013 10:57:47) complex                        
  
 POSCAR found type information on POSCAR  Si
 POSCAR found :  1 types and       2 ions

 ----------------------------------------------------------------------------- 
|                                                                             |
|  ADVICE TO THIS USER RUNNING 'VASP/VAMP'   (HEAR YOUR MASTER'S VOICE ...):  |
|                                                                             |
|      You have switched on vdW-DFT.                                          |
|      This routine was written and supplied by Jiri Klimes.                  |
|      We recommed that you carefully read and cite the following             |
|      publication                                                            |
|      J. Klimes, D.R. Bowler, A. Michelides                                  |
|        J. Phys.: Cond Matt. 22 022201 (2010)                                |
|      J. Klimes, D.R. Bowler, A. Michelides                                  |
|        Phys. Rev. B. 83, 195131 (2011)                                      |
|      and references therein.                                                |
|                                                                             |
 ----------------------------------------------------------------------------- 


 ----------------------------------------------------------------------------- 
|                                                                             |
|  ADVICE TO THIS USER RUNNING 'VASP/VAMP'   (HEAR YOUR MASTER'S VOICE ...):  |
|                                                                             |
|      You enforced a specific xc-type in the INCAR file,                     |
|      a different type was found on the POTCAR file                          |
|          I HOPE YOU KNOW, WHAT YOU ARE  DOING                               |
|                                                                             |
 ----------------------------------------------------------------------------- 

 LDA part: xc-table for Pade appr. of Perdew
 POSCAR, INCAR and KPOINTS ok, starting setup
 WARNING: small aliasing (wrap around) errors must be expected
 FFT: planning ...
 WAVECAR not read
 entering main loop
       N       E                     dE             d eps       ncg     rms          rms(c)
Total vdW correction in eV:      1.0901301
DAV:   1     0.156853501112E+02    0.15685E+02   -0.24842E+03  4032   0.173E+02
DAV:   2    -0.788140667472E+01   -0.23567E+02   -0.22545E+02  5120   0.482E+01
DAV:   3    -0.840752762239E+01   -0.52612E+00   -0.52195E+00  4992   0.566E+00
DAV:   4    -0.840897993752E+01   -0.14523E-02   -0.14521E-02  4760   0.320E-01
DAV:   5    -0.840898361127E+01   -0.36738E-05   -0.36742E-05  4800   0.168E-02    0.367E+00
Total vdW correction in eV:      1.1375843
DAV:   6    -0.835938559682E+01    0.49598E-01   -0.32667E-02  4552   0.382E-01    0.224E+00
Total vdW correction in eV:      1.2281117
DAV:   7    -0.835404316849E+01    0.53424E-02   -0.81299E-02  4648   0.586E-01    0.180E-01
Total vdW correction in eV:      1.2230822
DAV:   8    -0.833675142172E+01    0.17292E-01   -0.41162E-03  4428   0.126E-01    0.111E-01
Total vdW correction in eV:      1.2290735
DAV:   9    -0.833861577552E+01   -0.18644E-02   -0.28436E-04  4844   0.376E-02    0.621E-02
Total vdW correction in eV:      1.2291596
DAV:  10    -0.833854034392E+01    0.75432E-04   -0.18597E-05  4552   0.986E-03    0.111E-02
Total vdW correction in eV:      1.2291589
DAV:  11    -0.833821551361E+01    0.32483E-03   -0.74579E-07  4852   0.180E-03    0.235E-03
Total vdW correction in eV:      1.2291921
DAV:  12    -0.833818570939E+01    0.29804E-04   -0.24439E-08  4436   0.386E-04    0.124E-03
Total vdW correction in eV:      1.2291970
DAV:  13    -0.833817235924E+01    0.13350E-04   -0.75472E-09  3872   0.209E-04    0.112E-04
Total vdW correction in eV:      1.2291963
DAV:  14    -0.833817346931E+01   -0.11101E-05   -0.28083E-10  2496   0.403E-05    0.714E-05
Total vdW correction in eV:      1.2291963
DAV:  15    -0.833817329419E+01    0.17512E-06   -0.35666E-11  2444   0.152E-05    0.614E-06
Total vdW correction in eV:      1.2291963
DAV:  16    -0.833817311346E+01    0.18073E-06   -0.35481E-12  2380   0.469E-06    0.195E-06
Total vdW correction in eV:      1.2291963
DAV:  17    -0.833817325634E+01   -0.14288E-06   -0.11307E-12  2328   0.124E-06    0.386E-07
Total vdW correction in eV:      1.2291963
DAV:  18    -0.833817325256E+01    0.37771E-08   -0.77258E-13  2328   0.370E-07
Total vdW correction in eV:      1.2291963
Total vdW correction in eV:      1.2291963
   1 F= -.83381733E+01 E0= -.83381546E+01  d E =-.373422E-04
 optical routines
 imaginary and real dielectric function
 recalculating local potential from charge density
Total vdW correction in eV:      1.2291963
 direction            1
 direction            2
 direction            3
