LAMMPS (13 Jan 2016)
Reading data file ...
  triclinic box = (0 0 0) to (20.25 25.6144 49.9482) with tilt (0 0 0)
  1 by 1 by 1 MPI processor grid
  reading atoms ...
  720 atoms
Neighbor list info ...
  1 neighbor list requests
  update every 1 steps, delay 0 steps, check yes
  max neighbors/atom: 2000, page size: 100000
  master list distance cutoff = 7.72488
  ghost atom cutoff = 7.72488
Setting up cg style minimization ...
  Unit style: metal
Memory usage per processor = 3.35489 Mbytes
Step Temp Press CPU Pxx Pyy Pzz Pxy Pxz Pyz KinEng PotEng TotEng Volume Lx Ly Lz Atoms 
       0            0   -11076.676            0    -12383.56    -11577.82   -9268.6478 5.4750397e-07 8.7884976e-07    193.59997            0   -2362.4929   -2362.4929    25907.748        20.25    25.614449    49.948175      720 
       1            0   -10176.691 0.0024940968   -11435.313    -10653.66   -8441.0987 5.5061273e-07 8.877379e-07    203.91706            0   -2362.9604   -2362.9604    25838.289     20.22975    25.590501    49.910791      720 
       2            0   -9269.3387 0.0049910545   -10477.669   -9721.1805   -7609.1666 5.5374233e-07 8.9659126e-07    214.13854            0   -2363.3859   -2363.3859     25769.31      20.2095    25.566639     49.87393      720 
       3            0   -8355.3505 0.0075042248   -9511.1711   -8781.0655   -6773.8149 5.5680088e-07 9.053983e-07    224.24434            0   -2363.7692   -2363.7692    25700.867     20.18925    25.542877    49.837675      720 
       4            0   -7435.6992  0.010028124   -8536.5464   -7834.2343    -5936.317 5.5990098e-07 9.1412692e-07    234.19457            0   -2364.1103   -2364.1103    25633.028       20.169    25.519234     49.80213      720 
       5            0   -6511.9105  0.012538195   -7555.0092   -6882.1405   -5098.5819 5.6296548e-07 9.2276188e-07    243.98963            0   -2364.4094   -2364.4094    25565.887     20.14875    25.495733    49.767434      720 
       6            0   -5585.9385  0.015053988   -6568.0897   -5926.6473   -4263.0787 5.6588117e-07 9.3137697e-07     253.5679            0   -2364.6667   -2364.6667    25499.568      20.1285    25.472409    49.733773      720 
       7            0      -4660.5  0.017576218   -5577.9195   -4970.3518   -3433.2286 5.6874172e-07 9.3983966e-07    262.88601            0   -2364.8825   -2364.8825    25434.249     20.10825    25.449306    49.701409      720 
       8            0    -3739.527   0.02009511   -4587.5644   -4017.0091   -2614.0074 5.7176406e-07 9.4813789e-07    271.85765            0   -2365.0574   -2365.0574     25370.19       20.088    25.426495    49.670729      720 
       9            0   -2829.3743  0.022620201   -3602.0414     -3072.71   -1813.3716 5.7446761e-07 9.5620064e-07    280.39591            0   -2365.1925   -2365.1925      25307.8     20.06775    25.404081    49.642339      720 
      10            0     -1940.82  0.025141001   -2629.8423   -2147.7875   -1044.8303 5.7714811e-07 9.6376614e-07    288.34839            0   -2365.2893   -2365.2893    25247.776      20.0475    25.382248    49.617266      720 
      11            0   -1094.4466  0.027666092   -1687.2382   -1262.0081   -334.09367 5.7978457e-07 9.7095581e-07    295.40164            0   -2365.3505   -2365.3505     25191.46     20.02725    25.361348    49.597489      720 
      12            0   -337.77677  0.030198097   -811.68822   -461.03493    259.39285 5.8221322e-07 9.769377e-07    300.96063            0   -2365.3814   -2365.3814    25142.004       20.007    25.342211    49.587638      720 
      13            0    167.84287  0.032726049   -130.55497     99.84015    534.24343 5.8397944e-07 9.7996657e-07      303.048            0   -2365.3939   -2365.3939    25110.199     19.98675    25.327682    49.603524      720 
      14            0   -71.116853  0.035266161   -207.07773   -101.35078    95.077957 5.8356472e-07 9.7640275e-07    298.75703            0   -2365.4021   -2365.4021    25127.672    19.978777    25.329915    49.653472      720 
      15            0    281.69832  0.040292025    304.85914    293.92348    246.31232 5.8431322e-07 9.7708291e-07    300.40975            0   -2365.4063   -2365.4063    25106.006    19.962135    25.319635    49.672178      720 
      16            0     28.32941   0.04282999    213.23701    70.724984   -198.97377 5.8233926e-07 9.7134076e-07    297.18749            0   -2365.4134   -2365.4134    25124.608    19.954366    25.322797    49.722126      720 
      17            0   -306.61987  0.045373201    -335.0146   -324.07082   -260.77419 5.7792933e-07 9.6626495e-07     295.2662            0   -2365.4234   -2365.4234    25144.895    19.974616    25.334013    49.689817      720 
      18            0    150.23889  0.047919035    2.5942682    113.21871     334.9037 5.762172e-07 9.6700262e-07    299.86735            0   -2365.4325   -2365.4325     25113.63     19.97625    25.325901    49.639869      720 
      19            0   -41.339226    0.0504601   -433.72396    -68.04618    377.75246 5.4051863e-07 9.1466789e-07    290.51512            0   -2365.5647   -2365.5647    25128.042      19.9965    25.328081    49.613787      720 
      20            0     102.6348  0.053001165   -36.674919    100.11853    244.46079 5.3789075e-07 9.0974257e-07     290.4242            0   -2365.5872   -2365.5872    25121.089     19.97625    25.323909    49.658517      720 
      21            0   -248.76384  0.058045149   -281.44044   -257.12634   -207.72474 5.3627936e-07 9.0587637e-07    287.63713            0   -2365.5906   -2365.5906    25145.401    19.973915    25.331953    49.696602      720 
      22            0   -24.876996  0.060586214     178.8032   -18.434841   -234.99934 5.3601708e-07 9.0358758e-07    290.15081            0   -2365.5978   -2365.5978    25132.868    19.953665    25.326908    49.732145      720 
      23            0    283.02827  0.063133001    304.12541    291.34941    253.60998 5.3275679e-07 9.0217597e-07    291.12694            0   -2365.6122   -2365.6122    25111.231    19.962101     25.31984    49.682197      720 
      24            0   -333.20279  0.065676212   -466.23943   -348.01223   -185.35672 5.2833258e-07 8.9389311e-07    285.21784            0   -2365.6213   -2365.6213    25151.015    19.982351    25.333886    49.682922      720 
      25            0    -701.3552  0.068215132   -1038.8077   -734.07558   -331.18234 5.2085022e-07 8.8219407e-07    280.75133            0   -2365.6332   -2365.6332    25174.495    20.002601    25.342311    49.662444      720 
      26            0     11.37593  0.070761204   -415.33583   -4.5608241    454.02444 5.1392183e-07 8.7696584e-07    285.66985            0   -2365.6717   -2365.6717    25127.246    19.998078    25.325939    49.612496      720 
      27            0    79.270986  0.073302031   -78.124419     76.13959    239.79779 5.1395692e-07 8.7451434e-07    285.76505            0   -2365.6859   -2365.6859    25125.153    19.977828    25.324343    49.661777      720 
      28            0   -265.42523   0.07834506   -259.66305    -273.0425   -263.57015 5.1260758e-07 8.7000158e-07    283.16385            0   -2365.6902   -2365.6902     25149.55    19.971345    25.332319    49.710483      720 
      29            0    41.803563  0.080889225    266.66563    49.840496   -191.09544 5.1177457e-07 8.6943968e-07    286.35572            0   -2365.6959   -2365.6959    25131.314    19.951095    25.325443    49.738356      720 
      30            0    198.17769  0.083440065    193.23282    203.82152    197.47872  5.02873e-07 8.5735891e-07    284.77971            0   -2365.7374   -2365.7374    25120.008    19.965143    25.321666    49.688408      720 
      31            0   -253.30686  0.088481188   -289.06762   -261.86148   -208.99147 5.0048171e-07 8.5177745e-07    280.84254            0   -2365.7416   -2365.7416    25149.801    19.974104    25.331993    49.704751      720 
      32            0   -963.32622  0.093523026   -1045.4133   -995.27526   -849.29007 4.9199121e-07 8.3682387e-07     273.7082            0   -2365.7522   -2365.7522    25197.641    19.988128     25.34845    49.732052      720 
      33            0   -837.48922   0.09606719   -988.01472   -886.14384   -638.30911 4.0821569e-07 7.0229573e-07    260.80825            0   -2366.1096   -2366.1096    25199.012    19.990958    25.346957    49.730643      720 
      34            0    33.735828   0.10111713   -48.384403    17.528426    132.06346 4.0986631e-07 7.0720585e-07    267.79356            0   -2366.1255   -2366.1255    25141.578     19.97292    25.326541    49.702141      720 
      35            0  0.091593874   0.10367203    127.52787     28.09509   -155.34818 4.0885409e-07 7.0400921e-07    265.47896            0   -2366.1324   -2366.1324    25146.217    19.958425    25.324161    49.752089      720 
      36            0   -187.25547   0.10650802   -303.46748   -228.41552   -29.883404 4.0122477e-07 6.9303291e-07    265.47915            0   -2366.1621   -2366.1621    25157.022    19.978675    25.333067    49.705537      720 
      37            0    490.85272   0.11159706    420.05098    481.79533    570.71184 3.9996859e-07 6.9249312e-07    269.91741            0   -2366.1717   -2366.1717     25113.05    19.965281    25.316684    49.684076      720 
      38            0    1105.7438   0.11665916    1124.9379    1147.9463    1044.3472 3.9507304e-07 6.8731008e-07    271.95639            0     -2366.18     -2366.18    25074.613    19.949772    25.300266    49.678812      720 
      39            0    1008.4476   0.11922216    1176.6684    1120.2879    728.38642 3.820282e-07 6.6299752e-07    264.80821            0   -2366.2479   -2366.2479    25084.955    19.940624    25.296879     49.72876      720 
      40            0     8.713157   0.12178016    99.742573    68.214753   -141.81785 3.7997529e-07 6.5744947e-07    258.12211            0   -2366.2704   -2366.2704    25150.022    19.960874    25.321195    49.759341      720 
      41            0   -104.05148     0.124331   -190.12764   -170.34314    48.316341 3.7762747e-07 6.5546945e-07     263.4953            0   -2366.2756   -2366.2756    25155.223    19.975268    25.333611    49.709393      720 
      42            0    348.73136   0.12939501    244.22185    280.18575    521.78648 3.7680478e-07 6.5617606e-07    267.91718            0     -2366.28     -2366.28    25125.213    19.969816    25.324509    49.681496      720 
      43            0    1039.3552   0.13194513    862.84096    1106.9549    1148.2696 3.5387357e-07 6.2000416e-07    262.21303            0   -2366.3789   -2366.3789    25084.075    19.964633    25.298894    49.663259      720 
      44            0    79.496217   0.13450122   -112.80061    140.02477     211.2645 3.4541276e-07 6.0295232e-07    251.72267            0   -2366.4369   -2366.4369    25148.529    19.980105    25.318795    49.713207      720 
      45            0   -215.17679   0.13956022   -234.88245   -223.85115   -186.79677 3.4456622e-07  6.01039e-07     253.1147            0   -2366.4402   -2366.4402    25169.259    19.972176    25.331223    49.749519      720 
      46            0    55.622434     0.144629    244.23885   -4.1404315   -73.231122 3.4430899e-07 6.0110868e-07    259.20413            0   -2366.4435   -2366.4435    25152.831    19.953248     25.33073     49.76518      720 
      47            0    64.780047   0.14719009    144.01184    301.30956   -250.98126 3.0946393e-07 5.4083516e-07    235.30926            0   -2366.6244   -2366.6244    25160.227    19.960894    25.305115    49.811115      720 
      48            0   -233.74722   0.14974904   -234.90189   -230.57396   -235.76581 3.0644206e-07 5.3746884e-07    245.50243            0    -2366.636    -2366.636    25177.917    19.971189     25.33073    49.770061      720 
      49            0    159.42901   0.15230203    131.74677    32.126193    314.41407 3.0521954e-07 5.3757397e-07    256.93395            0   -2366.6417   -2366.6417    25150.728     19.96729    25.333742    49.720113      720 
      50            0    299.02345   0.15486312    202.14293    2.9674394    691.95997 3.0090135e-07 5.3302154e-07    268.17689            0   -2366.6525   -2366.6525    25140.348    19.970225    25.345025    49.670164      720 
      51            0   -588.75035   0.15741706   -733.26749   -834.42636   -198.55719 2.9557715e-07 5.2081767e-07    254.99081            0   -2366.6732   -2366.6732    25200.454    19.986931    25.358884    49.720113      720 
      52            0   -723.42881   0.15997005   -838.18509   -781.08824    -551.0131 2.9006382e-07 5.1022306e-07    241.43101            0   -2366.7058   -2366.7058    25212.384     19.98677    25.345632    49.770061      720 
      53            0    141.44979   0.16503716    96.346762    147.33487    180.66774 2.9077052e-07 5.1224536e-07    246.25651            0   -2366.7216   -2366.7216    25155.787    19.968809     25.32279    49.747836      720 
      54            0    335.83237   0.16761208    522.80133    424.79009    59.905691 2.8849409e-07  5.07458e-07    243.19073            0   -2366.7344   -2366.7344    25146.316    19.949315    25.312576    49.797785      720 
      55            0   -380.58966   0.17268705   -188.24349   -315.25604   -638.26946 2.853471e-07 5.0066934e-07    237.51393            0   -2366.7451   -2366.7451    25194.497    19.959493    25.329099    49.835228      720 
      56            0    -1016.462     0.175246   -972.39704   -1079.2973   -997.69171 2.7493842e-07 4.8283232e-07    236.52365            0   -2366.7792   -2366.7792     25236.92    19.979743    25.352657    49.822208      720 
      57            0   -393.52859   0.17781019   -407.21291   -491.68364   -281.68923 2.7013558e-07 4.7654592e-07    243.84295            0   -2366.8262   -2366.8262    25195.328    19.974649    25.342736    49.772259      720 
      58            0    38.593532   0.18287802    44.256236   -22.456442    93.980803 2.706959e-07 4.7817483e-07    245.99377            0   -2366.8301   -2366.8301    25166.913    19.966819    25.330813    49.759034      720 
      59            0   -9.5551404   0.18543506   -35.651079    216.53209   -209.54643 2.7008824e-07 4.7528912e-07    228.01182            0   -2366.8362   -2366.8362    25172.417    19.969697    25.307298    49.808982      720 
      60            0   -110.50369   0.18799305   -57.488423   -158.27928   -115.74336 2.6240336e-07 4.6425187e-07    242.32774            0   -2366.8789   -2366.8789    25179.417    19.965683    25.332913    49.782464      720 
      61            0    260.57285   0.19306922    288.54801    247.13701    246.03353 2.6205309e-07 4.6463579e-07     243.8406            0   -2366.8818   -2366.8818     25154.88    19.961977    25.322388    49.763858      720 
      62            0     672.7645    0.1981442    581.29297    753.33608    683.66443 2.6062025e-07 4.6283973e-07    241.85493            0   -2366.8861   -2366.8861    25127.728    19.964385    25.305776    49.736774      720 
      63            0    504.54473   0.20070004    164.00095     720.6755    628.95773 2.5603788e-07 4.5445257e-07     231.1487            0   -2366.9118   -2366.9118    25138.804    19.984635    25.296976     49.72557      720 
      64            0   -109.34066   0.20577621   -370.18149    22.216033     19.94348 2.5497974e-07 4.5202011e-07    230.16436            0   -2366.9199   -2366.9199    25179.713    19.988185    25.316694     49.75886      720 
      65            0   -18.758561   0.20833421   -15.484201   -31.329874   -9.4616081 2.5483126e-07 4.5229134e-07    239.83276            0   -2366.9248   -2366.9248    25175.019    19.967935     25.32794    49.777926      720 
      66            0        525.8    0.2134161    523.45188    614.85356    439.09457 2.5364752e-07 4.5084477e-07    238.70478            0   -2366.9313   -2366.9313    25140.065    19.960253    25.308332    49.766469      720 
      67            0    403.30409   0.21597409    263.23582    820.76231    125.91416 2.433889e-07 4.321735e-07    215.13192            0    -2366.993    -2366.993     25152.41    19.971845    25.282718    49.812421      720 
      68            0   -187.42941   0.21853709   -298.84751    67.398196   -330.83891 2.4226811e-07 4.2969743e-07     219.6268            0   -2367.0015   -2367.0015    25190.826    19.978673    25.308332    49.820976      720 
      69            0   -39.985081   0.22109509   -7.5881067   -115.81257    3.4454287 2.4092207e-07 4.3023319e-07    241.20294            0   -2367.0076   -2367.0076    25179.808    19.966306    25.333947    49.779649      720 
      70            0    261.97186   0.22617817    273.13832    264.95326    247.82399 2.4106401e-07 4.303762e-07    239.39093            0   -2367.0097   -2367.0097    25160.238    19.963332    25.321063    49.773684      720 
      71            0    172.95494   0.22873521    14.923401    493.48765    10.453752 2.3894313e-07 4.2517398e-07    218.33421            0   -2367.0234   -2367.0234    25167.875    19.976649    25.295448    49.805985      720 
      72            0   -331.13115     0.233814    -434.5452   -175.79461   -383.05364 2.3713602e-07 4.2205208e-07    223.59241            0   -2367.0296   -2367.0296    25200.969    19.980336    25.319752    49.814413      720 
      73            0   -289.49095   0.23637104   -227.26926   -437.82376   -203.37982 2.3514874e-07 4.209914e-07    242.15038            0   -2367.0383   -2367.0383    25197.685    19.967944    25.345366    49.788464      720 
      74            0    74.563474   0.24145603     138.3025   -31.634588    117.02251 2.3561396e-07 4.2204031e-07    243.31625            0   -2367.0411   -2367.0411    25173.718    19.962433    25.334347    49.776479      720 
      75            0    43.335255   0.24401617   -64.372928    239.73233   -45.353641 2.3557696e-07 4.2021336e-07    224.38598            0   -2367.0452   -2367.0452    25176.821    19.975063    25.308732    49.801492      720 
      76            0   -586.47271     0.249089   -693.85647   -465.17963   -600.38204 2.3225342e-07 4.1412634e-07    222.40618            0   -2367.0536   -2367.0536    25219.105    19.984505    25.327848    49.823931      720 
      77            0   -600.56629   0.25165415   -541.01981   -767.91661   -492.76245 2.2399964e-07 4.0247568e-07    238.42963            0   -2367.1008   -2367.1008    25221.524    19.972877    25.353462    49.807347      720 
      78            0     76.89301   0.25673103    151.13568   -35.479397    115.02275 2.2453673e-07 4.0445196e-07    242.02996            0   -2367.1105   -2367.1105    25176.761    19.961773    25.334958    49.782943      720 
      79            0    90.732083   0.25929523   -13.061286    270.02276    15.234775 2.2446757e-07 4.0273752e-07    224.21592            0   -2367.1149   -2367.1149    25176.722    19.974209    25.309343    49.802222      720 
      80            0   -316.03406   0.26437616   -433.59865   -163.11749   -351.38602 2.2315465e-07 3.9985841e-07    221.69776            0   -2367.1183   -2367.1183    25203.835    19.981285    25.319731    49.817754      720 
      81            0   -443.49092   0.26693821   -410.81528   -554.13465   -365.52285 2.1875196e-07 3.9413119e-07    235.86219            0   -2367.1405   -2367.1405    25212.809    19.972527    25.345345    49.806957      720 
      82            0    169.17366   0.27201414    239.36881    70.404594    197.74758 2.1868103e-07 3.9525486e-07    241.27497            0   -2367.1484   -2367.1484    25172.452    19.960772    25.331972    49.782784      720 
      83            0    525.29295    0.2745831    496.60531    640.69632    438.57723 2.1706324e-07 3.922093e-07    231.37881            0   -2367.1591   -2367.1591     25150.28    19.962526    25.306358    49.784906      720 
      84            0   -168.66328   0.27714109   -336.62485    100.33919   -269.70417  2.13902e-07 3.8485826e-07    214.46863            0   -2367.1802   -2367.1802    25197.369    19.982776    25.306831    49.826642      720 
      85            0   -84.424025   0.27970409   -67.080692   -128.58575   -57.605639 2.0544821e-07 3.7306717e-07     233.6071            0   -2367.2336   -2367.2336    25193.364    19.968462    25.332445    49.804026      720 
      86            0    102.65557   0.28478217    117.43802    87.574332    102.95435 2.0553776e-07 3.7345649e-07     233.7145            0   -2367.2344   -2367.2344    25181.105    19.965867    25.326173    49.798591      720 
      87            0    16.230918   0.28735113   -144.94187    317.15694   -123.52231 2.0398906e-07 3.694214e-07    212.87241            0   -2367.2453   -2367.2453    25188.484    19.979652    25.300558     49.82921      720 
      88            0   -191.68523   0.28991699   -231.85808   -138.26598   -204.93163 2.012085e-07 3.6584222e-07    225.97417            0   -2367.2624   -2367.2624     25202.23    19.974209    25.326173    49.819552      720 
      89            0    219.78247   0.29499602    248.14171    198.32259     212.8831 2.0078243e-07 3.665087e-07    234.62515            0   -2367.2662   -2367.2662    25174.973    19.963248    25.324453    49.796376      720 
      90            0    519.54389   0.30008507     650.4154    342.00255    566.21371 1.9934126e-07 3.656237e-07    246.94915            0   -2367.2692   -2367.2692    25155.223    19.951614    25.331978    49.771537      720 
      91            0    268.88343   0.30264902     504.7416    -145.1567    447.06539 1.9609903e-07 3.6134887e-07    258.01717            0   -2367.2845   -2367.2845    25171.913    19.947925    25.357593     49.76345      720 
      92            0   -210.51341   0.30772018   -102.82412   -445.83025   -82.885849 1.9598149e-07 3.5931026e-07     242.5753            0   -2367.2907   -2367.2907    25204.129    19.964069    25.351749    49.798323      720 
      93            0    -18.22134   0.31028914   -29.127468    -3.717547   -21.819005 1.9658119e-07 3.5916092e-07    229.49736            0   -2367.2949   -2367.2949    25192.158    19.969633    25.326134    49.811129      720 
      94            0    402.62729   0.31536818    469.81844    342.41427    395.64916 1.9565979e-07 3.5919515e-07    238.15334            0   -2367.2989   -2367.2989    25164.617    19.957889    25.324243     49.78967      720 
      95            0    285.71141   0.31793118    512.79018    -41.06755    385.41159 1.9063272e-07 3.5251277e-07    252.27681            0   -2367.3263   -2367.3263    25173.366     19.94837    25.349858    49.780396      720 
      96            0   -181.05761   0.32301021   -62.336099   -389.99996   -90.836753 1.9023866e-07 3.5043995e-07    240.53683            0   -2367.3315   -2367.3315    25204.503    19.962933    25.349004    49.807285      720 
      97            0   -59.730182   0.32557702   -99.336996   -3.1949045   -76.658646 1.9067545e-07 3.4984431e-07    225.73757            0   -2367.3357   -2367.3357    25197.089    19.972399     25.32339    49.819377      720 
      98            0    136.20747   0.33065701    135.41066    152.92666    120.28511 1.905965e-07 3.5040441e-07     230.1402            0   -2367.3366   -2367.3366    25184.094    19.966737    25.322948    49.808673      720 
      99            0    16.397801   0.33321619    170.60616   -233.02177    111.60901 1.8873787e-07 3.4885646e-07    244.77187            0   -2367.3424   -2367.3424    25191.873    19.957533    25.348562    49.796668      720 
     100            0   -369.01599   0.33578515   -418.43567   -331.02632   -357.58596 1.8645792e-07 3.4308159e-07    223.26127            0   -2367.3601   -2367.3601     25218.99    19.977783    25.331251    49.833772      720 
     101            0    135.64199   0.33835101    13.085508    352.99199    40.848472 1.856423e-07 3.4177375e-07    216.96543            0   -2367.3725   -2367.3725    25186.568    19.975485    25.305637    49.825811      720 
     102            0    748.93294   0.34091616    792.08471    743.18223    711.53188 1.6159048e-07 3.0651432e-07     234.8416            0   -2367.5255   -2367.5255    25154.421    19.955235    25.313175    49.797879      720 
     103            0   -130.92086   0.34348416   -96.471036   -228.23445     -68.0571 1.5401867e-07 2.9272297e-07    231.00144            0   -2367.5822   -2367.5822    25214.933    19.968989     25.33879    49.832867      720 
     104            0   -102.03951   0.34606099     -172.493    95.212246   -228.83777 1.3290103e-07 2.553782e-07    211.94504            0   -2367.7206   -2367.7206    25223.168    19.976459    25.313175    49.880924      720 
     105            0    545.02712   0.34863019    592.22241     522.1107    520.74823 1.2633788e-07 2.4619512e-07    232.52438            0   -2367.7566   -2367.7566    25181.896    19.958823    25.319441    49.830976      720 
     106            0    961.83765   0.35119915    1145.0529    617.10248    1123.3575 1.1697909e-07 2.3156364e-07    257.33013            0   -2367.7933   -2367.7933    25156.763    19.943525    25.338972    49.781028      720 
     107            0    804.79247   0.35377002    1063.0839    201.65442     1149.639 1.083878e-07 2.1661856e-07    271.97028            0    -2367.837    -2367.837    25169.387    19.940852    25.364586    49.762381      720 
     108            0   0.63685748   0.35633421     156.0562    -465.9694    311.82378 1.0831073e-07 2.1445386e-07    254.83157            0   -2367.8573   -2367.8573    25223.081    19.959797    25.369106    49.812329      720 
     109            0    22.170378   0.35890722    75.863584   -154.36232    145.00987 1.0879327e-07 2.1401946e-07    237.22335            0   -2367.8657   -2367.8657    25223.014    19.966611    25.343492    49.845524      720 
     110            0   -63.031864   0.36399603   -82.627895   -30.340816   -76.126881 1.0903601e-07 2.1343012e-07    223.10901            0   -2367.8678   -2367.8678    25229.823    19.972997    25.327113    49.875272      720 
     111            0    81.234168   0.36908817    64.607175    144.53092    34.564406 1.090883e-07 2.1372297e-07    222.63667            0   -2367.8683   -2367.8683    25220.479    19.970643    25.321619    49.873497      720 
     112            0    28.685385   0.37166715    309.13925   -3.1820852   -219.90101 1.0419337e-07 2.1266831e-07    227.04856            0   -2367.9183   -2367.9183    25230.051    19.950393    25.331921    49.922756      720 
     113            0   -146.42833   0.37423801   -109.85786   -158.02614   -171.40098 1.033249e-07 2.1174176e-07    224.80871            0   -2367.9299   -2367.9299    25240.072    19.970643    25.333054    49.889713      720 
     114            0    154.25469   0.37932611    130.00751    163.68139    169.07516 1.0319147e-07 2.1227673e-07    227.03766            0    -2367.932    -2367.932     25219.61    19.970632    25.325057    49.865032      720 
     115            0    326.63842   0.38442016    199.02097    356.63067    424.26362 1.0282701e-07 2.1245384e-07    228.27199            0   -2367.9333   -2367.9333    25207.514    19.975572    25.319588    49.839556      720 
     116            0   0.95990366   0.38698602   -339.37836    41.571287    300.68679 1.0171815e-07 2.111046e-07    225.69219            0   -2367.9403   -2367.9403    25228.063    19.995822    25.324674    49.819663      720 
     117            0   -210.19558   0.38955522   -314.32603   -217.14817    -99.11254 1.0089923e-07 2.1067809e-07     224.6751            0    -2367.954    -2367.954    25244.832    19.981965    25.333682    49.869611      720 
     118            0    119.01449   0.39464808    100.66007    118.00959    138.37381 1.0089428e-07 2.1151639e-07     227.3677            0   -2367.9565   -2367.9565    25223.731    19.970919    25.326803    49.869028      720 
     119            0    207.54786   0.39974403    368.76163    202.86779    51.014171 1.0065859e-07 2.1178514e-07    227.61923            0   -2367.9585   -2367.9585    25219.874    19.956686     25.32587    49.898803      720 
     120            0   -120.95881   0.40483904    86.219074   -136.19646   -312.89903 1.0032941e-07 2.1099226e-07    224.65579            0   -2367.9609   -2367.9609    25242.555    19.958162    25.333517     49.92491      720 
     121            0   -238.06328   0.40741611   -285.55776   -216.86858    -211.7635 9.9015218e-08 2.0991998e-07    222.20062            0   -2367.9753   -2367.9753    25249.101    19.978412    25.332105    49.890019      720 
     122            0    116.77062   0.41250515    70.624997    144.37993    135.30693 9.8923162e-08 2.106774e-07    225.67266            0   -2367.9779   -2367.9779    25225.454    19.973107     25.32445    49.871605      720 
     123            0    541.44894   0.41760612    571.04058    485.33957    567.96666 9.7940785e-08 2.1146138e-07    235.47429            0   -2367.9821   -2367.9821    25197.867    19.961591    25.323351    49.847968      720 
     124            0    419.59082   0.42017412    605.23505    99.251271    554.28614 9.4534167e-08 2.1047685e-07    250.49834            0   -2368.0116   -2368.0116     25207.77    19.952611    25.348966    49.839589      720 
     125            0    -96.59076   0.42527199    7.8991517   -329.30277    31.631339 9.4502965e-08 2.0908796e-07     239.5674            0   -2368.0176   -2368.0176     25242.29    19.965898     25.35171    49.869228      720 
     126            0    2.3840751   0.43038106    -13.96638    28.800038   -7.6814328 9.4895318e-08 2.0882504e-07    224.47116            0   -2368.0205   -2368.0205    25236.675    19.972981    25.327176    49.888735      720 
     127            0    26.437473   0.43295312    259.89487    37.515968   -218.09842 9.0860077e-08 2.0686969e-07    224.55114            0   -2368.0596   -2368.0596     25240.89     19.95492    25.328974    49.938683      720 
     128            0   -160.62251   0.43552613   -167.45898   -167.29364   -147.11492 8.9816412e-08 2.0576047e-07    224.94155            0   -2368.0711   -2368.0711    25251.526     19.97517    25.333637    49.899891      720 
     129            0    190.76951   0.44061708    111.39489     193.3588    267.55482 8.9495249e-08 2.0626364e-07    228.81759            0   -2368.0741   -2368.0741    25227.557    19.975297    25.325623    49.867984      720 
     130            0    388.08059    0.4457202    227.41981    393.85642    542.96555 8.8977838e-08 2.0632785e-07    231.60377            0   -2368.0754   -2368.0754    25213.984    19.978317    25.321222    49.842283      720 
     131            0    101.38706   0.44828701   -278.22003    85.735258    496.64597 8.6994562e-08 2.0453244e-07    232.27246            0   -2368.0883   -2368.0883    25232.279    19.998567    25.328324     49.81397      720 
     132            0   -171.65878   0.45085907   -372.51625   -190.76944    48.309355 8.6687042e-08 2.0388072e-07    227.39342            0   -2368.0982   -2368.0982    25252.649    19.989708    25.334602    49.863918      720 
     133            0    144.69699   0.45595717    78.333337     143.0907    212.66692 8.6796081e-08 2.0465873e-07    228.64667            0   -2368.1013   -2368.1013    25232.955    19.975292    25.327124     49.87571      720 
     134            0    40.831242   0.46105123    107.69884    43.420163   -28.625272 8.6743639e-08 2.0450019e-07     226.2398            0   -2368.1027   -2368.1027     25241.41    19.967166    25.329216    49.908605      720 
     135            0   -97.484822   0.46615005   -71.338446   -99.431663   -121.68436 8.6668529e-08 2.0412258e-07    225.27085            0   -2368.1031   -2368.1031    25250.292    19.972148     25.33227    49.907695      720 
     136            0    9.2253401   0.47123909   -107.24407    11.608347    123.31174 8.6392077e-08 2.0408911e-07    227.26417            0   -2368.1047   -2368.1047    25241.864    19.980941    25.329386     49.87476      720 
     137            0    531.87518   0.47381306    592.63248     513.4427    489.55036 8.4739224e-08 2.0423395e-07    233.20258            0   -2368.1174   -2368.1174    25209.977    19.960691    25.321326    49.878161      720 
     138            0    54.411651   0.47638416    263.36216   -13.136895   -86.990312 8.2339422e-08 2.0182391e-07     230.2417            0   -2368.1442   -2368.1442    25245.054    19.957171     25.33566    49.928109      720 
     139            0   -136.30353   0.48148608   -90.682752   -153.66462   -164.56323 8.226207e-08 2.0118602e-07    225.85689            0    -2368.146    -2368.146    25256.659    19.971752    25.334743    49.916397      720 
     140            0    13.356282   0.48657799   -19.605482    31.795772    27.878558 8.2270009e-08 2.0135856e-07    225.70886            0   -2368.1468   -2368.1468    25246.113    19.975236    25.328464    49.899219      720 
     141            0     56.75006   0.48914599    123.90939   -228.76221      275.103 7.9779332e-08 2.0052553e-07    245.86424            0   -2368.1628   -2368.1628    25243.323    19.967847    25.354079    49.861742      720 
     142            0   -216.96187   0.49172401   -219.44655   -256.23113   -175.20793 7.8842826e-08 1.985756e-07    226.84471            0    -2368.178    -2368.178    25264.281      19.9768    25.338374    49.911691      720 
     143            0    235.96935   0.49682117    225.81051    354.21795    127.87961 7.8559039e-08 1.9886618e-07    221.35819            0   -2368.1833   -2368.1833    25235.669    19.970646    25.315866    49.914868      720 
     144            0     459.4866   0.50192809    430.84154    720.75497    226.86328 7.8029495e-08 1.9858555e-07    214.14982            0   -2368.1852   -2368.1852    25222.476    19.968662    25.299288    49.926423      720 
     145            0    130.44053    0.5044992    33.430194    612.44539     -254.554 7.621555e-08 1.9596803e-07    195.80628            0   -2368.2013   -2368.2013    25247.724    19.978409    25.286961    49.976371      720 
     146            0   -165.71679   0.50707316   -221.91502    85.650335   -360.88568 7.5673253e-08 1.9559125e-07    208.25429            0   -2368.2097   -2368.2097    25266.055    19.980045    25.312575    49.957956      720 
     147            0    140.27359   0.51216722    139.42852    236.14095    45.251292 7.5441594e-08 1.9648923e-07    221.87868            0   -2368.2129   -2368.2129     25244.63    19.971715    25.319942    49.921879      720 
     148            0    7.9733919   0.51726913    25.185014   -29.436221    28.171383 7.5189151e-08 1.963739e-07    229.30044            0    -2368.214    -2368.214    25252.557    19.972476    25.334041    49.907864      720 
     149            0    -166.1505     0.522367   -219.33507   -112.03769   -167.07874 7.509026e-08 1.9567785e-07     221.6624            0    -2368.215    -2368.215    25264.534    19.980066     25.32951    49.921495      720 
     150            0    57.539365   0.52746606   -100.39484     319.4537   -46.440766 7.4893524e-08 1.9536812e-07    210.63494            0   -2368.2178   -2368.2178    25250.716    19.984236    25.307055    49.928041      720 
     151            0    370.73186   0.53004503     442.4299    441.60891    228.15677 6.8003357e-08 1.9108489e-07    225.78921            0    -2368.279    -2368.279    25236.347    19.963986    25.318324    49.928014      720 
     152            0     -304.563   0.53514314   -262.50202   -314.90363   -336.28335 6.6862961e-08 1.8898556e-07    223.91236            0   -2368.2888   -2368.2888    25281.645    19.976157    25.338772    49.946817      720 
     153            0   -738.35147   0.54024601   -739.78223   -860.50258   -614.76958 6.4941594e-08 1.8684407e-07    226.86122            0   -2368.2936   -2368.2936    25311.135    19.986002    25.357216    49.944091      720 
     154            0   -539.44664   0.54282308   -591.63874   -838.20341   -188.49776 6.0755885e-08 1.8430963e-07    242.23475            0   -2368.3274   -2368.3274    25299.087    19.987449    25.368683    49.894143      720 
     155            0    86.448558   0.54792309    70.855758   -111.48827    299.97819 6.0979672e-08 1.8545287e-07    242.51162            0   -2368.3361   -2368.3361    25258.058    19.975518    25.347375    49.884878      720 
     156            0  -0.41602583   0.55302715   -12.529622    17.822517   -6.5409725 6.127061e-08 1.8496417e-07    226.40304            0    -2368.339    -2368.339    25265.909      19.9763    25.330575    49.931523      720 
     157            0   -62.667061   0.55813408     190.9431   -206.02629     -172.918 6.0461432e-08 1.8455543e-07    234.23549            0   -2368.3423   -2368.3423     25272.16     19.95813    25.346478    49.957983      720 
     158            0    784.21914   0.56071019     1156.749    633.20007    562.70839 5.6994268e-08 1.8284764e-07      243.209            0   -2368.3585   -2368.3585    25219.928     19.93788    25.330847    49.936161      720 
     159            0    631.14904   0.56329608    928.94381    520.02852    444.47478 4.521746e-08 1.7055829e-07    239.39413            0   -2368.4583   -2368.4583    25241.293    19.947053    25.331561    49.954073      720 
     160            0   -48.151215    0.5684042    143.01554    -147.7696   -139.69959 4.5171834e-08 1.6918221e-07    231.64698            0   -2368.4682   -2368.4682    25285.963    19.964523    25.343883     49.97438      720 
     161            0   0.78811445   0.57351208   -9.5436679    15.639146    -3.731135 4.5227481e-08 1.6897295e-07    226.40752            0     -2368.47     -2368.47    25281.541    19.978385    25.332551    49.953307      720 
     162            0   -12.518286   0.57862115   -28.978702   -177.39654    168.82038 4.4542707e-08 1.6871863e-07    238.94412            0    -2368.472    -2368.472    25281.192    19.979316    25.348325    49.919204      720 
     163            0    1103.9167   0.58373022    1156.1222    945.19557    1210.4325 3.7718707e-08 1.6262284e-07    249.73434            0   -2368.5014   -2368.5014    25214.745    19.959402     25.32664    49.880348      720 
     164            0    870.11838   0.58631611     916.8544    736.47518    957.02554 2.7315044e-08 1.4949485e-07    243.16341            0   -2368.5816   -2368.5816    25242.233    19.965005    25.330649    49.912812      720 
     165            0   -10.869661   0.59141922   -16.577411   -136.01132    119.97974 2.7326294e-08 1.4794894e-07    232.00945            0   -2368.5977   -2368.5977    25301.025    19.981514    25.347373    49.954749      720 
     166            0  -0.04358101   0.59652114   -8.2199816    10.212367   -2.1231287 2.7482706e-08 1.477649e-07    222.30065            0   -2368.5987   -2368.5987    25301.568    19.981354    25.335477    49.979674      720 
     167            0    12.762701   0.60163403    138.79629   -47.202625   -53.305558 2.7259511e-08 1.4762863e-07    225.51349            0   -2368.5995   -2368.5995    25301.792    19.971482    25.341635    49.992675      720 
     168            0   -595.04379      0.60674   -476.21298    -693.3193   -615.59908 2.514553e-08 1.4323333e-07    218.14395            0   -2368.6078   -2368.6078    25345.612    19.981307    25.357578    50.023158      720 
     169            0   -428.11923   0.60931611   -344.87999   -490.83172   -448.64597 1.6547163e-08 1.2916588e-07    208.10596            0   -2368.6666   -2368.6666    25346.342    19.983475     25.35291    50.028385      720 
     170            0    6.8019519   0.61442399     89.70961   -25.987682   -43.316073 1.6558485e-08 1.2979664e-07    211.49325            0   -2368.6706   -2368.6706     25317.03    19.977188    25.341626     50.00851      720 
     171            0   -1.1250122    0.6195271   -7.0894452    5.5591923   -1.8447839 1.6560249e-08 1.2968902e-07    209.79896            0   -2368.6709   -2368.6709     25316.95    19.983772    25.338175    49.998686      720 
     172            0    64.594098   0.62463808    66.444912    5.2553386    122.08204 1.6399678e-08 1.2965491e-07    215.17487            0   -2368.6713   -2368.6713    25312.098    19.982375    25.342614    49.983842      720 
     173            0   -72.725328   0.62974715   -74.691965    -186.3448    42.860776 1.6189908e-08 1.291237e-07    217.04324            0   -2368.6718   -2368.6718     25321.11    19.984764     25.35009    49.980917      720 
     174            0   -53.981296   0.63232207   -44.984654   -159.91254    42.953307 8.9089813e-09 1.1090481e-07    196.24844            0   -2368.7116   -2368.7116    25332.814    19.985808    25.351373    49.998876      720 
     175            0    59.733668   0.63743305    66.666486    9.1419315    103.39259 8.9442041e-09 1.1098719e-07    193.60332            0    -2368.712    -2368.712    25325.612    19.984232    25.344309    50.002534      720 
     176            0   -1.0173057   0.64253616   -6.1159946    2.5182245   0.54585313 9.0011326e-09 1.108305e-07    188.90038            0   -2368.7122   -2368.7122    25330.143    19.985905     25.34081    50.014199      720 
     177            0    11.171419   0.64764309    38.745597    7.5465891   -12.777928 8.9853626e-09 1.1079742e-07    188.93654            0   -2368.7123   -2368.7123     25329.66    19.983342    25.341266    50.018761      720 
     178            0   -55.216601   0.65274906   -19.214802   -66.656138   -79.778864 8.953066e-09 1.1059373e-07    188.28223            0   -2368.7124   -2368.7124    25334.272    19.983703    25.343296    50.022959      720 
     179            0   -3.9346681   0.65533113    183.79861   -290.48227    94.879657 4.5747007e-09 9.267779e-08    171.79504            0   -2368.7284   -2368.7284    25341.653     19.97429     25.36891    50.010566      720 
     180            0    44.966349   0.65791607    36.710248    45.694513    52.494286 3.5081736e-09 8.6964567e-08    144.14365            0   -2368.7339   -2368.7339    25342.379    19.988164    25.343296    50.027798      720 
     181            0   -8.5941776   0.66301703   -19.927763   -5.7013869  -0.15338317 3.4907474e-09 8.6819509e-08    143.17217            0    -2368.734    -2368.734    25346.063    19.989166    25.344175    50.030827      720 
     182            0   -17.645287    0.6681211   -10.856628   -15.446267   -26.632965 3.4713134e-09 8.6675541e-08    142.53526            0    -2368.734    -2368.734     25346.96    19.987971    25.344466    50.035013      720 
     183            0    3.9940282   0.67323208    15.619017    6.0588914   -9.6958236 3.4566331e-09 8.6644746e-08    142.66179            0    -2368.734    -2368.734    25345.565    19.987308    25.344063    50.034716      720 
     184            0    12.188402   0.67833805    7.8213118    8.2656621    20.478231 3.4242138e-09 8.6522344e-08    143.30246            0    -2368.734    -2368.734    25344.816    19.988393      25.3444    50.029854      720 
     185            0   -4.4608941   0.68344307   -11.905387   -8.8846669    7.4073717 3.4156139e-09 8.6473511e-08     143.1214            0   -2368.7341   -2368.7341    25345.922    19.988863    25.344771     50.03013      720 
     186            0   -11.382293   0.68854618   -9.2009132   -3.8593119   -21.086653 3.402381e-09 8.6279833e-08    141.67271            0   -2368.7341   -2368.7341    25346.683    19.988239    25.343904    50.034905      720 
     187            0    6.2189494   0.69365907    11.432826     14.52865   -7.3046286 3.3914229e-09 8.6244655e-08    141.70891            0   -2368.7341   -2368.7341    25345.544    19.987764    25.343497     50.03465      720 
     188            0    11.361745   0.69876504     15.03841   -3.0505046     22.09733 3.3307159e-09 8.598596e-08    143.13998            0   -2368.7341   -2368.7341    25345.021     19.98786    25.345381     50.02966      720 
     189            0   -11.550177     0.703866   -12.010831   -26.477231    3.8375315 3.3105794e-09 8.5865388e-08    142.80162            0   -2368.7341   -2368.7341    25346.555      19.9885    25.345879      50.0301      720 
     190            0   -11.636335   0.70897508   -29.409446    10.726008   -16.225566 3.2617289e-09 8.5267326e-08    139.41931            0   -2368.7342   -2368.7342    25346.878    19.989741    25.342648    50.034013      720 
     191            0    21.854144   0.71408319    11.339737    44.408181    9.8145148 3.2227404e-09 8.5069598e-08    139.35968            0   -2368.7342   -2368.7342    25344.744    19.988734    25.341997    50.033605      720 
     192            0    8.6254586   0.71919322    38.665781   -10.322622   -2.4667831 3.0681289e-09  8.41402e-08    140.21281            0   -2368.7343   -2368.7343    25345.939    19.986048    25.345999    50.034786      720 
     193            0   -34.479645   0.72429514   -16.623996   -53.765958    -33.04898 3.0034949e-09 8.3638274e-08    139.23816            0   -2368.7344   -2368.7344    25348.835    19.987588    25.346888    50.034894      720 
     194            0   -6.2203894   0.72940516   -36.684926   0.60028361    17.423474 2.8162568e-09 8.2325034e-08    136.56064            0   -2368.7345   -2368.7345     25346.92    19.990767    25.344047    50.028765      720 
     195            0    37.041061   0.73450804    21.255155    46.290222    43.577806 2.7520583e-09 8.1872336e-08    135.92412            0   -2368.7345   -2368.7345    25344.291    19.989079    25.343039     50.02979      720 
     196            0    3.3979913   0.73961115     23.93613    5.6481474   -19.390304 2.6210705e-09 8.0843039e-08    133.84268            0   -2368.7346   -2368.7346     25347.18    19.986936    25.344446    50.038077      720 
     197            0    -30.18706   0.74472618   -21.208544   -33.025319   -36.327317 2.5714526e-09 8.0460871e-08    133.48115            0   -2368.7347   -2368.7347     25349.36    19.988298    25.345552    50.036789      720 
     198            0   -2.1017464   0.74983501   -13.952523   -8.4026867    16.049971  2.47478e-09 7.9922496e-08    133.64537            0   -2368.7347   -2368.7347    25347.297    19.989467    25.345289     50.03031      720 
     199            0    21.684101   0.75494504    16.846646    22.096798     26.10886 2.450647e-09 7.9745681e-08    133.01258            0   -2368.7348   -2368.7348    25345.871    19.988603     25.34426    50.031689      720 
     200            0   0.65630725   0.76004815    5.7956054    8.2403966    -12.06708 2.4196567e-09 7.9458047e-08    131.58064            0   -2368.7348   -2368.7348    25347.554    19.988166    25.344091    50.036439      720 
     201            0   -17.148776   0.76515007   -14.378697   -18.160853   -18.906778 2.4042212e-09 7.9320927e-08    131.84392            0   -2368.7348   -2368.7348    25348.678    19.988618    25.345192    50.035351      720 
     202            0  0.050601072    0.7702632  0.052282373   -10.280615    10.380136 2.377706e-09 7.9186281e-08    132.56007            0   -2368.7348   -2368.7348    25347.413      19.9886    25.345664    50.031969      720 
     203            0    16.418972   0.77536821    13.099066    18.632917    17.524932 2.3709235e-09 7.9054549e-08    131.62542            0   -2368.7348   -2368.7348    25346.414    19.988593    25.344253      50.0328      720 
     204            0    -1.332214     0.780478    -8.002148    11.481453   -7.4759475 2.3632448e-09 7.8896717e-08    130.37818            0   -2368.7348   -2368.7348     25347.72    19.989082    25.343687     50.03527      720 
     205            0   -18.511309   0.78558421   -11.478483   -22.471014   -21.584429 2.3319526e-09 7.8665579e-08    130.75039            0   -2368.7349   -2368.7349    25348.925    19.988356    25.345524    50.035842      720 
     206            0    3.0909785   0.79069519    18.634602   -10.122671   0.76100388 2.3080178e-09 7.8529886e-08    131.26041            0   -2368.7349   -2368.7349    25347.492     19.98744    25.345925    50.034512      720 
     207            0    22.304953   0.79579711    11.224228     25.15157    30.539061 2.2696281e-09 7.8042991e-08     129.7965            0   -2368.7349   -2368.7349    25346.123    19.989123    25.344128    50.031145      720 
     208            0   -5.7249579   0.80089903   -26.957929    2.3064915    7.4765633 2.250492e-09 7.7784267e-08    128.74164            0   -2368.7349   -2368.7349    25348.009    19.990276    25.344228    50.031783      720 
     209            0   -27.581522   0.80601001   -14.023209   -26.331809   -42.389549 2.1827826e-09 7.6820498e-08     126.3644            0    -2368.735    -2368.735    25350.018    19.988069    25.345377    50.039006      720 
     210            0    7.7225739   0.81111407     31.25832    7.5261802   -15.616779 2.1500747e-09 7.6502553e-08    126.01905            0    -2368.735    -2368.735    25347.781    19.986842    25.344843    50.038716      720 
     211            0     26.61816     0.816221    15.179596    20.498898    44.175987 2.0305938e-09 7.5270096e-08    124.72493            0   -2368.7352   -2368.7352     25346.25    19.989219     25.34499    50.029452      720 
     212            0   -8.7747748    0.8213222   -27.239663    -15.50082    16.416158 1.999703e-09 7.4901082e-08    123.74359            0   -2368.7352   -2368.7352    25348.631    19.990262    25.345751    50.030042      720 
     213            0   -21.671291    0.8264792   -15.955234   -11.437195   -37.621446 1.9491592e-09 7.382395e-08    119.51931            0   -2368.7353   -2368.7353    25350.165    19.988671    25.344649    50.039227      720 
     214            0    7.7031704   0.83158422    18.229293    18.707348    -13.82713 1.9269245e-09 7.3626581e-08    119.27323            0   -2368.7353   -2368.7353    25348.269    19.987902    25.344023    50.038646      720 
     215            0    13.457844   0.83668804    14.580333    1.6469426    24.146258 1.8661947e-09 7.3063251e-08    119.97489            0   -2368.7353   -2368.7353    25347.638    19.988581    25.345907    50.031982      720 
     216            0   -7.3716147   0.84179902   -9.7619548   -19.119777    6.7668874 1.8639678e-09 7.2942306e-08    119.51722            0   -2368.7354   -2368.7354    25349.036    19.989144    25.346314    50.032526      720 
     217            0   -8.1131417   0.84690309   -15.168278    3.4930704   -12.664218 1.8550253e-09 7.2628556e-08    117.06434            0   -2368.7354   -2368.7354    25349.325    19.989469    25.344313    50.036233      720 
     218            0    8.1917144   0.85201001    4.6442286     19.37547   0.55544487 1.8497878e-09 7.2574901e-08    117.08252            0   -2368.7354   -2368.7354    25348.263    19.988979    25.344038    50.035907      720 
     219            0    4.1032568   0.85711503     14.22661   -4.3529162    2.4360763 1.8326292e-09 7.2415617e-08    117.81654            0   -2368.7354   -2368.7354    25348.534    19.988071    25.345861    50.035115      720 
     220            0   -11.055719   0.86222601   -5.1618621   -19.278281   -8.7270154 1.8378841e-09 7.2336573e-08    117.51612            0   -2368.7354   -2368.7354    25349.529    19.988604    25.346137    50.035201      720 
     221            0   -2.5145951   0.86733222   -14.467294      2.14851    4.7749988 1.840714e-09 7.2168225e-08    116.45146            0   -2368.7354   -2368.7354    25348.897    19.989785    25.344827    50.033583      720 
     222            0     15.67092     0.872437    9.2565519    21.090022    16.666186 1.8409191e-09 7.2102941e-08    116.26212            0   -2368.7354   -2368.7354    25347.745    19.989116    25.344418     50.03379      720 
     223            0    1.6844698   0.87755013    15.175266    1.0900381   -11.211894 1.8481594e-09 7.1878377e-08    115.38433            0   -2368.7355   -2368.7355    25348.912    19.987867    25.345273    50.037532      720 
     224            0    -23.42786   0.88265204   -17.252417   -27.069519   -25.961645 1.8474305e-09 7.1709105e-08    114.86639            0   -2368.7355   -2368.7355    25350.531    19.988782    25.346034    50.036938      720 
     225            0   -1.6343478   0.88776112   -17.042798   -6.9744662    19.114221 1.8552093e-09 7.1312094e-08    114.14131            0   -2368.7355   -2368.7355    25348.842    19.990089     25.34574    50.030914      720 
     226            0    32.592874   0.89286518    26.272715    35.030863    36.475044 1.876796e-09 7.1036395e-08    112.65606            0   -2368.7356   -2368.7356    25346.749    19.988926    25.344429    50.032281      720 
     227            0   0.81345021   0.89797521    13.482673    14.094769   -25.137091 1.912856e-09  7.03739e-08    108.61161            0   -2368.7356   -2368.7356    25349.357    19.987988    25.344206    50.040215      720 
     228            0   -38.383039   0.90308022   -32.243062   -41.414403   -41.491651 1.9331718e-09 6.9874684e-08    107.63388            0   -2368.7357   -2368.7357    25351.862    19.989088    25.346425    50.038027      720 
     229            0  -0.18825086   0.90822816   -2.8651984   -22.171994     24.47244 1.9519267e-09 6.9243277e-08    107.02901            0   -2368.7358   -2368.7358    25349.074    19.989262    25.347351     50.03026      720 
     230            0    33.251759   0.91334414    26.951979    36.389509    36.413788 1.9882903e-09 6.8802713e-08    103.78467            0   -2368.7358   -2368.7358    25347.084    19.989025    25.344539    50.032476      720 
     231            0   -1.3915761   0.91844606   -10.915214    19.800356   -13.059871 2.0187847e-09 6.8362361e-08    100.43312            0   -2368.7359   -2368.7359    25349.655    19.989746    25.343685    50.037431      720 
     232            0   -22.949976   0.92355514   -15.923743   -26.245761   -26.680423 2.0316316e-09 6.8055075e-08    100.44811            0   -2368.7359   -2368.7359    25351.119    19.988893    25.346295    50.037305      720 
     233            0    2.1324806   0.92867112    16.657643   -11.111126   0.85092492 2.0337047e-09 6.7922035e-08    100.73939            0   -2368.7359   -2368.7359    25349.422    19.988005    25.346689    50.035401      720 
     234            0    14.739458   0.93378401     8.869463    16.096971    19.251939 2.0479076e-09 6.7723714e-08    99.320637            0   -2368.7359   -2368.7359      25348.5    19.989315    25.345149    50.033341      720 
     235            0   -2.5910601   0.93888617   -13.836553    2.0894134    3.9739596 2.0486717e-09 6.7637191e-08    98.674386            0   -2368.7359   -2368.7359     25349.66    19.989958    25.345199    50.033923      720 
     236            0   -11.056626   0.94398999   -5.7840053   -10.715192    -16.67068 2.065406e-09 6.7502048e-08    97.986618            0    -2368.736    -2368.736    25350.406    19.988872    25.345786    50.036955      720 
     237            0    3.0061094   0.94909906      11.9969    2.5609268    -5.539499 2.0670346e-09 6.7487446e-08    97.982965            0    -2368.736    -2368.736    25349.488    19.988398    25.345586    50.036724      720 
     238            0    10.096011   0.95420599    5.0088747    7.7652429    17.513917 2.0806423e-09 6.7357446e-08    97.862276            0    -2368.736    -2368.736    25348.831    19.989347    25.345592    50.033039      720 
     239            0   -4.4872163   0.95931101   -12.611785   -6.9978933    6.1480299 2.0854574e-09 6.7301949e-08     97.55509            0    -2368.736    -2368.736     25349.79    19.989783    25.345894    50.033245      720 
     240            0   -12.525976   0.96441317   -7.9771858   -5.8111244   -23.789616 2.1150421e-09 6.7083881e-08    95.451842            0    -2368.736    -2368.736    25350.599    19.988952    25.345293    50.038107      720 
     241            0     6.990549   0.96952605     15.09663    14.499646   -8.6246293 2.1287826e-09 6.7034087e-08    95.224732            0    -2368.736    -2368.736    25349.324     19.98841     25.34485    50.037822      720 
     242            0    14.256241   0.97464919    14.637755  -0.67617291    28.807142 2.1570462e-09 6.6660147e-08    95.247569            0   -2368.7361   -2368.7361    25348.527    19.988935    25.346667    50.031351      720 
     243            0   -12.200446   0.97975111   -16.417464   -27.572544     7.388671 2.1718776e-09 6.6511546e-08    94.379386            0   -2368.7361   -2368.7361    25350.278     19.98966     25.34723    50.031877      720 
     244            0    -14.19664   0.98486114   -28.058312    9.6199216    -24.15153 2.2794491e-09 6.5851943e-08    88.283308            0   -2368.7362   -2368.7362    25350.733    19.990352    25.343898    50.037622      720 
     245            0    18.969191   0.98997021    12.316527    41.920371    2.6706741 2.3077154e-09 6.5674281e-08    87.598655            0   -2368.7362   -2368.7362    25348.559    19.989352    25.343345    50.036926      720 
     246            0    8.3144886   0.99507999    31.235297   -10.313308    4.0214764 2.3764691e-09 6.5033918e-08    86.718789            0   -2368.7363   -2368.7363    25349.238     19.98742    25.347269    50.035355      720 
     247            0   -23.873896    1.0001841   -11.275645   -40.941524   -19.404518 2.4055933e-09 6.4787989e-08    85.268148            0   -2368.7363   -2368.7363    25351.333     19.98865    25.347768    50.035426      720 
     248            0   -4.2370298    1.0052881   -23.578247    2.3761188    8.4910385 2.4732533e-09 6.4269844e-08    81.714915            0   -2368.7364   -2368.7364    25349.876    19.990705    25.345299    50.032284      720 
     249            0    21.064087    1.0103991    11.504362    28.085358    23.602542 2.5001857e-09 6.4146469e-08    81.065492            0   -2368.7364   -2368.7364    25348.277    19.989622    25.344792    50.032839      720 
     250            0    1.7924192    1.0155051    13.326827    1.9407332   -9.8903029 2.5334654e-09 6.3862777e-08    79.631162            0   -2368.7364   -2368.7364    25349.779     19.98836    25.345829    50.036914      720 
     251            0   -16.258592    1.0206151   -11.451922   -18.486066   -18.837788 2.5356314e-09 6.3759685e-08    79.273654            0   -2368.7364   -2368.7364    25350.905    19.989124    25.346385    50.036127      720 
     252            0  -0.93671067    1.0257232    -8.025345   -3.9122414    9.1274544 2.5481212e-09 6.3624885e-08     79.04859            0   -2368.7364   -2368.7364    25349.712    19.989789    25.346133    50.032604      720 
     253            0    13.476093    1.0308301    10.894905    14.377563    15.155812 2.5552883e-09 6.3557179e-08    78.547836            0   -2368.7364   -2368.7364    25348.823    19.989243    25.345523    50.033419      720 
     254            0   0.10078683    1.0359361    4.2623216    5.0593556   -9.0193167 2.5756495e-09 6.3436082e-08    77.480812            0   -2368.7364   -2368.7364    25349.854    19.988931    25.345455    50.036373      720 
     255            0   -14.329494    1.0410411   -12.338727    -16.17348   -14.476276 2.5757808e-09 6.3334372e-08    77.515946            0   -2368.7365   -2368.7365    25350.738    19.989313     25.34633    50.035432      720 
     256            0   0.51143805    1.0461552  -0.25532816   -9.0368357    10.826478 2.5654004e-09 6.3224197e-08    77.837688            0   -2368.7365   -2368.7365    25349.608     19.98932    25.346705    50.032444      720 
     257            0    17.879056    1.0512581    13.892848    21.769944    17.974374 2.5869448e-09 6.3052016e-08    76.434966            0   -2368.7365   -2368.7365    25348.515    19.989285    25.345195    50.033354      720 
     258            0   -2.0125619    1.0563681   -9.2298782    13.239357   -10.047165 2.5959738e-09 6.2831851e-08    74.647892            0   -2368.7365   -2368.7365    25349.937     19.98979    25.344604    50.036065      720 
     259            0   -22.301559    1.0614822   -12.795079   -28.236167   -25.873432 2.5929047e-09 6.2426906e-08    74.281331            0   -2368.7365   -2368.7365    25351.276    19.988887     25.34689    50.036453      720 
     260            0    4.1905822    1.0665951    23.013073   -12.281047    1.8397201 2.5894747e-09 6.2169609e-08    74.262603            0   -2368.7365   -2368.7365    25349.454     19.98784    25.347307    50.034656      720 
     261            0    23.670492     1.071696    10.858501    27.059101    33.093873 2.6113347e-09 6.1379843e-08    70.861925            0   -2368.7366   -2368.7366    25347.901    19.989868    25.345162    50.030749      720 
     262            0   -6.3234166    1.0767992   -28.141844     1.922731    7.2488635 2.6163532e-09 6.1038344e-08    69.233932            0   -2368.7366   -2368.7366    25349.867    19.990958    25.345327    50.031576      720 
     263            0    -21.40332     1.081912   -10.228535   -20.143244    -33.83818 2.6372077e-09 6.0076283e-08    65.719415            0   -2368.7367   -2368.7367     25351.15    19.988751    25.346325    50.037662      720 
     264            0     6.139548    1.0870171    23.374423    6.2998702   -11.255649 2.6381712e-09 5.9849667e-08    65.212519            0   -2368.7367   -2368.7367    25349.317    19.987911    25.345893    50.036997      720 
     265            0    14.514056    1.0921261    8.0475814    10.490772    25.003814 2.6354153e-09 5.9192342e-08    63.882376            0   -2368.7368   -2368.7368    25348.371    19.989556    25.346064    50.030678      720 
     266            0   -5.2369394     1.097234   -14.876869     -9.27752    8.4435706 2.6344878e-09 5.9054901e-08    63.287843            0   -2368.7368   -2368.7368     25349.67    19.990075    25.346455    50.031172      720 
     267            0   -9.6783913    1.1023462    -7.261192   -4.0767361   -17.697246 2.6429795e-09 5.8689198e-08    61.114393            0   -2368.7368   -2368.7368    25350.189    19.989229    25.345739    50.035726      720 
     268            0    4.3060896      1.10745    8.8416206    9.9385672   -5.8619192 2.6417799e-09 5.8641639e-08    61.045729            0   -2368.7368   -2368.7368    25349.256    19.988871    25.345465     50.03532      720 
     269            0    5.8213087    1.1125641     6.952279  -0.79059254     11.30224 2.6269001e-09 5.8458776e-08    61.494055            0   -2368.7368   -2368.7368    25348.969    19.989125    25.346495    50.032085      720 
     270            0   -4.8946654     1.117676   -5.7163673   -11.138697    2.1710677 2.6278365e-09 5.8412782e-08    61.244167            0   -2368.7368   -2368.7368    25349.676    19.989422    25.346673    50.032386      720 
     271            0   -4.0103038    1.1227791   -9.2685304    3.7486152   -6.5109963 2.6302004e-09 5.824296e-08    59.817343            0   -2368.7368   -2368.7368    25349.692     19.98971    25.345435     50.03414      720 
     272            0    7.1914229    1.1278882      4.73838    14.347495    2.4883932 2.621052e-09 5.8202925e-08    59.813676            0   -2368.7368   -2368.7368     25348.95    19.989343    25.345271    50.033918      720 
     273            0    2.4049727    1.1329961    11.606878   -4.4916666  0.099706974 2.6093029e-09 5.8023362e-08    60.143492            0   -2368.7368   -2368.7368     25349.25    19.988574     25.34661    50.033791      720 
     274            0   -12.153732     1.138108   -7.6033038   -18.734436   -10.123456 2.6026831e-09 5.7905403e-08    59.759764            0   -2368.7368   -2368.7368    25350.178    19.989126    25.346863    50.033742      720 
     275            0   -1.6896155     1.143208   -14.374897    2.2108022    7.0952479 2.5863469e-09 5.7565417e-08    58.581462            0   -2368.7368   -2368.7368    25349.328    19.990227    25.345717    50.031571      720 
     276            0    18.920239     1.148314    13.463546     23.89014     19.40703 2.5662783e-09 5.7343618e-08     58.04906            0   -2368.7369   -2368.7369    25347.993    19.989392    25.345232    50.031984      720 
     277            0     1.042617    1.1534271     15.05562    1.7515376   -13.679307 2.5349894e-09 5.6736748e-08    56.374476            0   -2368.7369   -2368.7369     25349.33    19.988209    25.345999     50.03607      720 
     278            0   -25.226501      1.15853   -20.380626   -28.628493   -26.670384 2.4999023e-09 5.6259412e-08    55.470711            0   -2368.7369   -2368.7369    25350.915    19.989267    25.346862    50.034846      720 
     279            0  -0.79378424    1.1636391   -12.967171   -6.8702211    17.456039 2.4275375e-09 5.5430622e-08    54.334627            0   -2368.7369   -2368.7369    25348.918     19.99017    25.346585    50.029192      720 
     280            0    24.877856     1.168745     21.04285    27.020352    26.570366 2.4092852e-09 5.4935184e-08    52.674639            0    -2368.737    -2368.737    25347.291    19.989162    25.345383    50.030874      720 
     281            0 -0.045612492    1.1738551    5.8507479    9.1011145     -15.0887 2.3772296e-09 5.4280677e-08    50.170431            0    -2368.737    -2368.737    25349.101    19.988778    25.345293    50.035587      720 
     282            0   -19.379061    1.1789601   -16.356621    -21.87412   -19.906442 2.3390325e-09 5.3902121e-08    50.019327            0    -2368.737    -2368.737    25350.218    19.989285    25.346683    50.033778      720 
     283            0   0.41940912     1.184067     1.159014   -10.181541    10.280755 2.3164402e-09 5.3570482e-08    50.155625            0    -2368.737    -2368.737    25348.715    19.989181    25.346992    50.030463      720 
     284            0     12.95946    1.1891761    9.8718786    15.219518    13.786984 2.3069122e-09 5.3350519e-08    48.886427            0    -2368.737    -2368.737     25347.92    19.989256    25.345622    50.031409      720 
     285            0   -1.0709895    1.1942852   -6.2158329    7.2253996    -4.222535 2.2942928e-09 5.3215239e-08    47.979662            0   -2368.7371   -2368.7371    25348.896    19.989596    25.345374    50.032977      720 
     286            0   -8.6038409    1.1993961   -4.8681384   -10.537023   -10.406361 2.2820697e-09 5.3080912e-08    48.187109            0   -2368.7371   -2368.7371     25349.39    19.989064    25.346428    50.033203      720 
     287            0    1.5242568    1.2045052    8.1722989   -3.4211865  -0.17834196 2.2874504e-09 5.3028391e-08    48.358646            0   -2368.7371   -2368.7371    25348.695    19.988708    25.346494    50.032591      720 
     288            0    6.6061706     1.209614    2.6688574    7.4640378    9.6856167 2.2687996e-09 5.2908742e-08    47.887906            0   -2368.7371   -2368.7371    25348.263    19.989404     25.34587    50.031227      720 
     289            0   -2.2182545     1.214715   -8.4905901  -0.26742213    2.1032487 2.2767518e-09 5.2859818e-08    47.647003            0   -2368.7371   -2368.7371    25348.841      19.9897    25.345945    50.031478      720 
     290            0   -6.9642623    1.2198212     -2.50263   -6.3458562   -12.044301 2.2606643e-09 5.2692191e-08    47.129424            0   -2368.7371   -2368.7371    25349.251    19.988972    25.346175    50.033656      720 
     291            0    3.2227986      1.22493    9.9284589    3.5870498   -3.8471129 2.2592675e-09 5.265214e-08    47.119243            0   -2368.7371   -2368.7371    25348.572    19.988659    25.345999    50.033446      720 
     292            0    7.9846465    1.2300372    3.3310728    4.9246573    15.698209 2.2289935e-09 5.2395255e-08    47.059503            0   -2368.7371   -2368.7371    25348.026    19.989429    25.346179    50.030087      720 
     293            0   -5.1453274    1.2351401   -12.036362   -8.3512077    4.9515872 2.2188412e-09 5.2311657e-08    46.763146            0   -2368.7371   -2368.7371    25348.877    19.989781    25.346447    50.030357      720 
     294            0   -9.9244257    1.2402442   -7.1004855   -2.2837605   -20.389031 2.1842674e-09 5.1831315e-08    44.611883            0   -2368.7371   -2368.7371    25349.338    19.989094    25.345616    50.034627      720 
     295            0    7.0395302    1.2453551    12.516491    14.768937   -6.1668373 2.1820363e-09 5.1713723e-08    44.461345            0   -2368.7371   -2368.7371    25348.187    19.988649    25.345276    50.034139      720 
     296            0     8.203122     1.250458    11.143116   -3.5650245    17.031274 2.1076953e-09 5.1143574e-08    44.732176            0   -2368.7372   -2368.7372     25347.76    19.988837    25.346935    50.029551      720 
     297            0    -9.157846    1.2555602   -9.6556364   -19.787118    1.9692165 2.0899602e-09 5.1003146e-08    44.161224            0   -2368.7372   -2368.7372    25348.884    19.989333    25.347173    50.030059      720 
     298            0   -5.1665374    1.2606702   -14.183886    5.8582161   -7.1739421 2.0702629e-09 5.0528691e-08    41.644637            0   -2368.7372   -2368.7372    25348.639    19.989848    25.345195    50.032191      720 
     299            0    9.9637755     1.265779    5.6481077    19.244635    4.9985834 2.0501246e-09 5.0426409e-08    41.616617            0   -2368.7372   -2368.7372    25347.622    19.989282    25.345055    50.031877      720 
     300            0    2.0552536    1.2708862    10.573852   -3.0997832   -1.3083081 2.0253245e-09 5.0191678e-08    41.829932            0   -2368.7372   -2368.7372    25348.112    19.988464    25.346485    50.032067      720 
     301            0   -9.0776614    1.2759891   -5.1727048    -13.51781   -8.5424696 2.0189961e-09 5.0117289e-08    41.555002            0   -2368.7372   -2368.7372    25348.807     19.98896    25.346634    50.031902      720 
     302            0  -0.90262731    1.2810912   -6.7666363     0.279063    3.7796914 2.0076052e-09  4.99962e-08    41.111928            0   -2368.7372   -2368.7372    25348.162     19.98955    25.345965    50.030477      720 
     303            0    7.3750984    1.2862051     5.107246     8.989269    8.0287801 2.0059973e-09 4.9961012e-08    41.017034            0   -2368.7372   -2368.7372    25347.636    19.989162    25.345769    50.030793      720 
     304            0    0.2969267     1.291311    4.1549223   0.79398654   -4.0581287 2.003264e-09 4.9897422e-08    40.751102            0   -2368.7372   -2368.7372    25348.163     19.98881    25.346017    50.032229      720 
     305            0   -6.9074975    1.2964261   -5.8174457    -7.745641   -7.1594059 1.9935611e-09 4.9861372e-08    40.739055            0   -2368.7372   -2368.7372    25348.598    19.989118     25.34627    50.031816      720 
     306            0 -0.054821128    1.3015332   -3.2457914   -1.8520161    4.9333441 1.9840303e-09 4.9826868e-08    40.856058            0   -2368.7372   -2368.7372    25348.055    19.989336    25.346208    50.030323      720 
     307            0    7.9769869    1.3066392    7.1828524    8.9559095     7.792199 1.9844561e-09 4.9803045e-08    40.595768            0   -2368.7372   -2368.7372    25347.552    19.989035    25.345811    50.030865      720 
     308            0   -0.3506941    1.3117411    1.9825232    3.4671921   -6.5017976 1.9795327e-09 4.9755777e-08    40.064849            0   -2368.7372   -2368.7372    25348.166    19.988913    25.345734    50.032534      720 
     309            0   -10.742992    1.3168471   -9.2647748   -13.105214   -9.8589872 1.9675355e-09 4.9699509e-08    40.237887            0   -2368.7372   -2368.7372    25348.773    19.989131    25.346471     50.03173      720 
     310            0   0.86845187    1.3219602    1.5348174   -7.2447464    8.3152846 1.9608837e-09 4.9645493e-08    40.596806            0   -2368.7372   -2368.7372    25347.877    19.989028    25.346735      50.0297      720 
     311            0    13.030659    1.3270631    9.1366744    16.970937    12.984366 1.9473618e-09 4.952936e-08    39.516111            0   -2368.7372   -2368.7372    25347.062    19.989155    25.345434    50.030342      720 
     312            0   -1.9596705    1.3321722   -8.7576977    8.7103521   -5.8316661 1.9495274e-09 4.9430518e-08    38.562558            0   -2368.7372   -2368.7372    25348.075    19.989562    25.345137    50.031907      720 
     313            0   -12.450096    1.3372781   -6.0075298   -15.946746   -15.396011 1.9332623e-09 4.9274057e-08    38.704841            0   -2368.7373   -2368.7373    25348.714     19.98874    25.346589    50.032358      720 
     314            0    2.6916466    1.3423932    13.244288   -4.7419361  -0.42741193 1.9258319e-09 4.9208598e-08    38.875112            0   -2368.7373   -2368.7373    25347.653    19.988218    25.346634    50.031482      720 
     315            0    8.9066137    1.3474941    3.5728032    9.8581537    13.288884 1.9053523e-09 4.9057363e-08    38.064468            0   -2368.7373   -2368.7373    25347.045     19.98927    25.345745    50.029406      720 
     316            0   -2.6361002     1.352597   -10.400242  -0.58188364    3.0738246 1.9099722e-09 4.9019691e-08    37.757218            0   -2368.7373   -2368.7373    25347.794    19.989609    25.345871    50.029788      720 
     317            0   -5.9181713    1.3577101   -2.6110668   -5.2635768   -9.8798704 1.9069392e-09 4.8936334e-08    37.311484            0   -2368.7373   -2368.7373    25348.087    19.988828    25.346073    50.031921      720 
     318            0    1.9967857    1.3628142    6.6123906    2.4702361   -3.0922696 1.9021005e-09 4.8929618e-08    37.344143            0   -2368.7373   -2368.7373    25347.553    19.988616    25.345933    50.031672      720 
     319            0    3.5667439    1.3679221    1.8209585    2.2662008    6.6130724 1.9029643e-09  4.88956e-08    37.480328            0   -2368.7373   -2368.7373    25347.328    19.989062    25.346041      50.0299      720 
     320            0   -1.7455009    1.3730261   -4.2184434   -3.0261681    2.0081087 1.8993587e-09 4.8889903e-08    37.402965            0   -2368.7373   -2368.7373    25347.677    19.989191    25.346143    50.030066      720 
     321            0   -2.6749278    1.3781381   -1.9368502  -0.65533922   -5.4325939 1.9025448e-09 4.8862413e-08    36.998654            0   -2368.7373   -2368.7373    25347.798    19.988957    25.345879    50.031411      720 
     322            0    1.8831557    1.3832412    3.2873684    3.8481122   -1.4860135 1.9028305e-09 4.8865649e-08    37.031332            0   -2368.7373   -2368.7373    25347.492    19.988841    25.345794    50.031262      720 
     323            0    2.0821947    1.3883462    2.7235184   -1.1128805    4.6359462 1.8969083e-09 4.884461e-08    37.387577            0   -2368.7373   -2368.7373    25347.402    19.988901    25.346234    50.030067      720 
     324            0   -2.9764718    1.3934562   -3.3344214   -5.8738288   0.27883476 1.8991541e-09 4.8856388e-08    37.302003            0   -2368.7373   -2368.7373    25347.734    19.989046    25.346306    50.030217      720 
     325            0   -1.8712004      1.39856   -5.3826854     2.907057   -3.1379728 1.9000222e-09 4.8818291e-08    36.698323            0   -2368.7373   -2368.7373    25347.679    19.989243    25.345609    50.030991      720 
     326            0    5.3475669    1.4036682    3.8936213    9.5504998    2.5985795 1.8889701e-09 4.8818589e-08    36.757974            0   -2368.7373   -2368.7373    25347.196    19.988986    25.345519     50.03086      720 
     327            0    1.2204757    1.4087732    7.6798605   -3.1455454  -0.87288819 1.886082e-09 4.8787322e-08    37.100755            0   -2368.7373   -2368.7373    25347.448    19.988467    25.346353    50.031011      720 
     328            0   -8.8664108    1.4138842   -6.1644054   -12.813375   -7.6214519 1.8783537e-09 4.8768699e-08    36.934562            0   -2368.7373   -2368.7373    25348.072    19.988883    25.346505      50.0309      720 
     329            0  -0.78972377    1.4189842   -8.4208106    1.1102783    4.9413609 1.8807793e-09 4.8721238e-08    36.580811            0   -2368.7373   -2368.7373    25347.402    19.989505    25.345809    50.029395      720 
     330            0    10.730806    1.4240901    8.1395487     13.11566    10.937209 1.8711512e-09 4.8686672e-08    36.477641            0   -2368.7373   -2368.7373    25346.647    19.988957    25.345542    50.029804      720 
     331            0   0.33791882    1.4292011    6.3140073   0.89039457   -6.1906454 1.8684508e-09 4.8644764e-08    36.146316            0   -2368.7373   -2368.7373    25347.382     19.98846    25.345914    50.031764      720 
     332            0   -9.5915632    1.4343071   -8.0444088   -10.767241   -9.9630396 1.8619814e-09 4.860981e-08    36.141515            0   -2368.7373   -2368.7373    25347.957    19.988926    25.346247    50.031078      720 
     333            0  -0.18266136    1.4394152   -3.8293352   -2.0674387    5.3487898 1.8530156e-09 4.8582892e-08    36.292696            0   -2368.7373   -2368.7373    25347.209    19.989166    25.346105    50.029279      720 
     334            0    6.7925405    1.4445181    5.8960036    7.3872453    7.0943727 1.857158e-09 4.8573821e-08    36.084317            0   -2368.7373   -2368.7373    25346.775    19.988853    25.345754    50.029898      720 
     335            0 -0.071432612    1.4496272    1.4246615    2.1145004   -3.7534597 1.8557198e-09 4.8557235e-08    35.783653            0   -2368.7373   -2368.7373    25347.272    19.988767    25.345754    50.031094      720 
     336            0   -4.7495634      1.45473   -4.1191152   -5.5063875   -4.6231876 1.8503252e-09 4.8536713e-08    35.945496            0   -2368.7373   -2368.7373     25347.54    19.988901    25.346099    50.030608      720 
     337            0   0.19675736    1.4598351   0.20950869   -2.4176711    2.7984345 1.8491343e-09 4.8538715e-08    36.142267            0   -2368.7373   -2368.7373    25347.168    19.988877    25.346159    50.029815      720 
     338            0    3.6869395    1.4649441    2.7712681    4.6652521    3.6242982 1.8513517e-09 4.8525777e-08    35.909493            0   -2368.7373   -2368.7373    25346.949    19.988887    25.345775    50.030116      720 
     339            0  -0.47607624     1.470052   -1.9175866     2.255451   -1.7660931 1.8521397e-09 4.8515281e-08    35.722455            0   -2368.7373   -2368.7373     25347.24    19.988981    25.345703    50.030596      720 
     340            0   -3.3764169    1.4751611   -1.5995436    -4.595399   -3.9343082 1.8375383e-09 4.8496174e-08    35.921266            0   -2368.7373   -2368.7373    25347.426    19.988789    25.346108    50.030645      720 
     341            0   0.88963862    1.4802742    3.8666903   -1.6452576   0.44748312 1.8425865e-09 4.8492401e-08    36.048379            0   -2368.7373   -2368.7373    25347.132    19.988641    25.346139    50.030375      720 
     342            0    3.6080248     1.485383   0.97366398    4.4442099    5.4062007 1.8399095e-09 4.8454361e-08    35.910481            0   -2368.7373   -2368.7373    25346.898    19.989005    25.345778    50.029712      720 
     343            0   -1.5708622    1.4904852   -5.5500155 -0.050016932   0.88744568 1.8398854e-09 4.8449811e-08     35.81318            0   -2368.7373   -2368.7373    25347.236    19.989176    25.345818    50.029874      720 
     344            0    -4.567804    1.4955902   -1.2864353   -4.4353628    -7.981614 1.8303589e-09 4.837109e-08    35.728491            0   -2368.7374   -2368.7374     25347.48    19.988675    25.346004    50.031242      720 
     345            0    2.2415867    1.5006981    6.9278773    2.1617579   -2.3648753 1.8224959e-09 4.8346553e-08    35.797357            0   -2368.7374   -2368.7374     25347.02     19.98847    25.345888    50.031075      720 
     346            0    4.7029095    1.5058031    1.6673615     3.326072    9.1152949 1.7934323e-09 4.8237609e-08    36.048601            0   -2368.7374   -2368.7374    25346.697    19.988994    25.345925    50.029053      720 
[...]
    1058            0  0.080050751  0.060990095   0.22029453  0.019857784 -6.1518817e-08 -2.5291883e-05 3.3347076e-07 2.876845e-08            0   -2368.7376   -2368.7376    25346.786    19.988576    25.345952    50.030223      720 
    1059            0   0.08005075  0.066071033   0.22029452  0.019857786 -5.9113358e-08 -6.0459012e-06 2.5820157e-08 5.0311096e-08            0   -2368.7376   -2368.7376    25346.786    19.988576    25.345952    50.030223      720 
    1060            0  0.080050756  0.071160078   0.22029453   0.01985779 -5.6028033e-08 -6.5311742e-07 1.7425342e-09 2.5905883e-08            0   -2368.7376   -2368.7376    25346.786    19.988576    25.345952    50.030223      720 
    1061            0  0.080050751   0.07624507   0.22029452  0.019857784 -5.6176711e-08 -2.2254101e-07 -2.5971761e-09 5.5232938e-08            0   -2368.7376   -2368.7376    25346.786    19.988576    25.345952    50.030223      720 
    1062            0  0.080050759  0.081582069   0.22029454  0.019857793 -5.0403745e-08 -2.7409831e-08 1.9404426e-09 3.3479788e-08            0   -2368.7376   -2368.7376    25346.786    19.988576    25.345952    50.030223      720 
    1063            0  0.080050757  0.089168072   0.22029453  0.019857791 -5.078158e-08 6.4224021e-09 -7.0617562e-10 4.1481802e-08            0   -2368.7376   -2368.7376    25346.786    19.988576    25.345952    50.030223      720 
Loop time of 0.089186 on 1 procs for 17 steps with 720 atoms

103.2% CPU use with 1 MPI tasks x no OpenMP threads

Minimization stats:
  Stopping criterion = force tolerance
  Energy initial, next-to-last, final = 
        -2368.73759582     -2368.73759582     -2368.73759582
  Force two-norm initial, final = 3.15618e-05 9.20071e-11
  Force max component initial, final = 3.37691e-06 6.36121e-12
  Final line search alpha, max atom move = 1 6.36121e-12
  Iterations, force evaluations = 17 34

MPI task timing breakdown:
Section |  min time  |  avg time  |  max time  |%varavg| %total
---------------------------------------------------------------
Pair    | 0.08774    | 0.08774    | 0.08774    |   0.0 | 98.38
Neigh   | 0          | 0          | 0          |   0.0 |  0.00
Comm    | 0.00032759 | 0.00032759 | 0.00032759 |   0.0 |  0.37
Output  | 0.00046086 | 0.00046086 | 0.00046086 |   0.0 |  0.52
Modify  | 0          | 0          | 0          |   0.0 |  0.00
Other   |            | 0.0006573  |            |       |  0.74

Nlocal:    720 ave 720 max 720 min
Histogram: 1 0 0 0 0 0 0 0 0 0
Nghost:    1271 ave 1271 max 1271 min
Histogram: 1 0 0 0 0 0 0 0 0 0
Neighs:    41800 ave 41800 max 41800 min
Histogram: 1 0 0 0 0 0 0 0 0 0

Total # of neighbors = 41800
Ave neighs/atom = 58.0556
Neighbor list builds = 0
Dangerous builds = 0
Reading restart file ...
  restart file = 13 Jan 2016, LAMMPS = 13 Jan 2016
  triclinic box = (0.130712 0.134249 -0.0410241) to (20.1193 25.4802 49.9892) with tilt (0 0 0)
  1 by 1 by 1 MPI processor grid
  720 atoms
Changing box ...
  triclinic box = (0.130712 0.134249 -0.0410241) to (20.1193 25.4802 49.9892) with tilt (0 5.00302e-05 0)
Neighbor list info ...
  1 neighbor list requests
  update every 1 steps, delay 0 steps, check yes
  max neighbors/atom: 2000, page size: 100000
  master list distance cutoff = 7.72488
  ghost atom cutoff = 7.72488
Setting up cg style minimization ...
  Unit style: metal
Memory usage per processor = 3.36393 Mbytes
Step Temp Press CPU Pxx Pyy Pzz Pxy Pxz Pyz KinEng PotEng TotEng Volume Lx Ly Lz Atoms 
    1046            0  0.080050763            0   0.22029464  0.019857693 -4.4661038e-08 -0.008166898  -0.15977017 -1.2446098e-07            0   -2368.7376   -2368.7376    25346.786    19.988576    25.345952    50.030223      720 
    1047            0  0.080050715 0.0050780773   0.22029459  0.019857663 -1.1201331e-07 -0.0064781019   -0.1410424 -1.2130866e-07            0   -2368.7376   -2368.7376    25346.786    19.988576    25.345952    50.030223      720 
    1048            0  0.080050703  0.010170937   0.22029458  0.019857652 -1.253683e-07 -0.0055963276  -0.12621535 -1.301467e-07            0   -2368.7376   -2368.7376    25346.786    19.988576    25.345952    50.030223      720 
    1049            0  0.080050706  0.015254974   0.22029458  0.019857663 -1.2866091e-07 -0.0036622567  -0.11198109 -1.1904211e-07            0   -2368.7376   -2368.7376    25346.786    19.988576    25.345952    50.030223      720 
    1050            0  0.080050712  0.020339012   0.22029459  0.019857684 -1.3535284e-07 -0.0009778118 -0.098436404 -1.1878922e-07            0   -2368.7376   -2368.7376    25346.786    19.988576    25.345952    50.030223      720 
    1051            0  0.080050742  0.025424957    0.2202946  0.019857721 -9.5310783e-08 -0.00046321971 -0.084681724 -1.1937517e-07            0   -2368.7376   -2368.7376    25346.786    19.988576    25.345952    50.030223      720 
    1052            0  0.080050759  0.030508995   0.22029459  0.019857756 -6.9268978e-08 -0.0023827423 -0.068402154 -9.5670715e-08            0   -2368.7376   -2368.7376    25346.786    19.988576    25.345952    50.030223      720 
    1053            0  0.080050753   0.03559494   0.22029458   0.01985776 -7.6521636e-08 -0.0035440424 -0.056670354 -8.6503401e-08            0   -2368.7376   -2368.7376    25346.786    19.988576    25.345952    50.030223      720 
    1054            0  0.080050764  0.040677071   0.22029458  0.019857772 -5.7858795e-08 -0.0034461631 -0.039161821 -5.9193688e-08            0   -2368.7376   -2368.7376    25346.786    19.988576    25.345952    50.030223      720 
    1055            0   0.08005078  0.045758963   0.22029454  0.019857825 -2.7052557e-08 -0.00036035118 -0.0040462977 5.1065528e-08            0   -2368.7376   -2368.7376    25346.786    19.988576    25.345952    50.030223      720 
    1056            0  0.080050764  0.050844908   0.22029454  0.019857791 -4.2569567e-08 0.00035587865 -7.8984238e-05 3.0841332e-08            0   -2368.7376   -2368.7376    25346.786    19.988576    25.345952    50.030223      720 
    1057            0  0.080050755  0.055926085   0.22029453  0.019857792 -5.3801471e-08 0.0001248137 -6.8568973e-06 4.7749336e-08            0   -2368.7376   -2368.7376    25346.786    19.988576    25.345952    50.030223      720 
    1058            0  0.080050751   0.06101203   0.22029453  0.019857784 -6.1534045e-08 2.5291862e-05 -3.3357357e-07 2.8745502e-08            0   -2368.7376   -2368.7376    25346.786    19.988576    25.345952    50.030223      720 
    1059            0   0.08005075  0.066097975   0.22029452  0.019857786 -5.9118144e-08 6.0459331e-06 -2.5678919e-08 5.031605e-08            0   -2368.7376   -2368.7376    25346.786    19.988576    25.345952    50.030223      720 
    1060            0  0.080050756  0.071182966   0.22029453   0.01985779 -5.6011921e-08 6.5306963e-07 -2.0357608e-09 2.589234e-08            0   -2368.7376   -2368.7376    25346.786    19.988576    25.345952    50.030223      720 
    1061            0  0.080050751  0.076265097   0.22029452  0.019857784 -5.617622e-08 2.2264311e-07 2.9503557e-09 5.5234634e-08            0   -2368.7376   -2368.7376    25346.786    19.988576    25.345952    50.030223      720 
    1062            0  0.080050759  0.081345081   0.22029454  0.019857793 -5.0396179e-08 2.752286e-08 -2.3456316e-09 3.3493798e-08            0   -2368.7376   -2368.7376    25346.786    19.988576    25.345952    50.030223      720 
    1063            0  0.080050757  0.088907957   0.22029453  0.019857791 -5.07572e-08 -6.4158803e-09 7.1951838e-10 4.147112e-08            0   -2368.7376   -2368.7376    25346.786    19.988576    25.345952    50.030223      720 
Loop time of 0.0889249 on 1 procs for 17 steps with 720 atoms

99.0% CPU use with 1 MPI tasks x no OpenMP threads

Minimization stats:
  Stopping criterion = force tolerance
  Energy initial, next-to-last, final = 
        -2368.73759582     -2368.73759582     -2368.73759582
  Force two-norm initial, final = 3.15618e-05 9.21262e-11
  Force max component initial, final = 3.37691e-06 5.9285e-12
  Final line search alpha, max atom move = 1 5.9285e-12
  Iterations, force evaluations = 17 34

MPI task timing breakdown:
Section |  min time  |  avg time  |  max time  |%varavg| %total
---------------------------------------------------------------
Pair    | 0.087525   | 0.087525   | 0.087525   |   0.0 | 98.43
Neigh   | 0          | 0          | 0          |   0.0 |  0.00
Comm    | 0.00032115 | 0.00032115 | 0.00032115 |   0.0 |  0.36
Output  | 0.00043631 | 0.00043631 | 0.00043631 |   0.0 |  0.49
Modify  | 0          | 0          | 0          |   0.0 |  0.00
Other   |            | 0.0006421  |            |       |  0.72

Nlocal:    720 ave 720 max 720 min
Histogram: 1 0 0 0 0 0 0 0 0 0
Nghost:    1271 ave 1271 max 1271 min
Histogram: 1 0 0 0 0 0 0 0 0 0
Neighs:    41800 ave 41800 max 41800 min
Histogram: 1 0 0 0 0 0 0 0 0 0

Total # of neighbors = 41800
Ave neighs/atom = 58.0556
Neighbor list builds = 0
Dangerous builds = 0
Reading restart file ...
  restart file = 13 Jan 2016, LAMMPS = 13 Jan 2016
  triclinic box = (0.130712 0.134249 -0.0410241) to (20.1193 25.4802 49.9892) with tilt (0 0 0)
  1 by 1 by 1 MPI processor grid
  720 atoms
Changing box ...
  triclinic box = (0.130712 0.134249 -0.0410241) to (20.1193 25.4802 49.9892) with tilt (-2.5346e-05 0 0)
Neighbor list info ...
  1 neighbor list requests
  update every 1 steps, delay 0 steps, check yes
  max neighbors/atom: 2000, page size: 100000
  master list distance cutoff = 7.72488
  ghost atom cutoff = 7.72488
Setting up cg style minimization ...
  Unit style: metal
Memory usage per processor = 3.36393 Mbytes
Step Temp Press CPU Pxx Pyy Pzz Pxy Pxz Pyz KinEng PotEng TotEng Volume Lx Ly Lz Atoms 
    1046            0  0.080050775            0   0.22029464  0.019858034 -3.4572869e-07   0.16915438 0.0081668984 7.196958e-08            0   -2368.7376   -2368.7376    25346.786    19.988576    25.345952    50.030223      720 
    1047            0  0.080050787 0.0049550533   0.22029466   0.01985803 -3.2591718e-07   0.16236778 0.0065686708 5.0049948e-08            0   -2368.7376   -2368.7376    25346.786    19.988576    25.345952    50.030223      720 
    1048            0  0.080050793 0.0099210739   0.22029466  0.019858037 -3.2158344e-07   0.16148547 0.0066022631 5.1539429e-08            0   -2368.7376   -2368.7376    25346.786    19.988576    25.345952    50.030223      720 
    1049            0  0.080050802   0.01488018   0.22029467  0.019858043 -3.0977916e-07   0.16131579 0.0059082739 4.7722411e-08            0   -2368.7376   -2368.7376    25346.786    19.988576    25.345952    50.030223      720 
    1050            0  0.080050813  0.019845009   0.22029468  0.019858052 -2.9301842e-07      0.16126 0.0052257172 4.0558993e-08            0   -2368.7376   -2368.7376    25346.786    19.988576    25.345952    50.030223      720 
    1051            0  0.080050829  0.024804115   0.22029469  0.019858066 -2.6975073e-07   0.16123215 0.0046679143 3.3481557e-08            0   -2368.7376   -2368.7376    25346.786    19.988576    25.345952    50.030223      720 
    1052            0  0.080050853  0.029764175   0.22029471  0.019858085 -2.3536683e-07   0.16121261 0.0041744317 2.4916741e-08            0   -2368.7376   -2368.7376    25346.786    19.988576    25.345952    50.030223      720 
    1053            0  0.080050881   0.03472805   0.22029473  0.019858107 -1.9528257e-07   0.16119755 0.0037675439 1.544507e-08            0   -2368.7376   -2368.7376    25346.786    19.988576    25.345952    50.030223      720 
    1054            0  0.080050925  0.039690971   0.22029477  0.019858141 -1.3396888e-07   0.16118057 0.0033194098 4.321592e-09            0   -2368.7376   -2368.7376    25346.786    19.988576    25.345952    50.030223      720 
    1055            0  0.080050988  0.044653177   0.22029482   0.01985819 -4.5658471e-08   0.16116019 0.0027691356 -6.8675985e-09            0   -2368.7376   -2368.7376    25346.786    19.988576    25.345952    50.030223      720 
    1056            0   0.08005103  0.049612999   0.22029485   0.01985822 1.5716553e-08    0.1611451 0.0022349523 -1.1082916e-08            0   -2368.7376   -2368.7376    25346.786    19.988576    25.345952    50.030223      720 
    1057            0   0.08005103  0.057012081   0.22029485   0.01985822 1.5716553e-08    0.1611451 0.0022349523 -1.1082916e-08            0   -2368.7376   -2368.7376    25346.786    19.988576    25.345952    50.030223      720 
Loop time of 0.057029 on 1 procs for 11 steps with 720 atoms

105.2% CPU use with 1 MPI tasks x no OpenMP threads

Minimization stats:
  Stopping criterion = linesearch alpha is zero
  Energy initial, next-to-last, final = 
        -2368.73759582     -2368.73759582     -2368.73759582
  Force two-norm initial, final = 1.95306e-05 9.09303e-07
  Force max component initial, final = 2.40635e-06 7.71385e-08
  Final line search alpha, max atom move = 0.5 3.85693e-08
  Iterations, force evaluations = 11 22

MPI task timing breakdown:
Section |  min time  |  avg time  |  max time  |%varavg| %total
---------------------------------------------------------------
Pair    | 0.056119   | 0.056119   | 0.056119   |   0.0 | 98.40
Neigh   | 0          | 0          | 0          |   0.0 |  0.00
Comm    | 0.00021195 | 0.00021195 | 0.00021195 |   0.0 |  0.37
Output  | 0.0002749  | 0.0002749  | 0.0002749  |   0.0 |  0.48
Modify  | 0          | 0          | 0          |   0.0 |  0.00
Other   |            | 0.0004234  |            |       |  0.74

Nlocal:    720 ave 720 max 720 min
Histogram: 1 0 0 0 0 0 0 0 0 0
Nghost:    1271 ave 1271 max 1271 min
Histogram: 1 0 0 0 0 0 0 0 0 0
Neighs:    41800 ave 41800 max 41800 min
Histogram: 1 0 0 0 0 0 0 0 0 0

Total # of neighbors = 41800
Ave neighs/atom = 58.0556
Neighbor list builds = 0
Dangerous builds = 0
Reading restart file ...
  restart file = 13 Jan 2016, LAMMPS = 13 Jan 2016
  triclinic box = (0.130712 0.134249 -0.0410241) to (20.1193 25.4802 49.9892) with tilt (0 0 0)
  1 by 1 by 1 MPI processor grid
  720 atoms
Changing box ...
  triclinic box = (0.130712 0.134249 -0.0410241) to (20.1193 25.4802 49.9892) with tilt (2.5346e-05 0 0)
Neighbor list info ...
  1 neighbor list requests
  update every 1 steps, delay 0 steps, check yes
  max neighbors/atom: 2000, page size: 100000
  master list distance cutoff = 7.72488
  ghost atom cutoff = 7.72488
Setting up cg style minimization ...
  Unit style: metal
Memory usage per processor = 3.36393 Mbytes
Step Temp Press CPU Pxx Pyy Pzz Pxy Pxz Pyz KinEng PotEng TotEng Volume Lx Ly Lz Atoms 
    1046            0  0.080050775            0   0.22029464  0.019858034 -3.4571794e-07  -0.16915438 -0.0081668983 7.1970924e-08            0   -2368.7376   -2368.7376    25346.786    19.988576    25.345952    50.030223      720 
    1047            0  0.080050787 0.0049610138   0.22029466   0.01985803 -3.2591642e-07  -0.16236778 -0.0065686709 5.0049896e-08            0   -2368.7376   -2368.7376    25346.786    19.988576    25.345952    50.030223      720 
    1048            0  0.080050793 0.0099589825   0.22029466  0.019858037 -3.2157943e-07  -0.16148547 -0.0066022631 5.1538368e-08            0   -2368.7376   -2368.7376    25346.786    19.988576    25.345952    50.030223      720 
    1049            0  0.080050802  0.014925003   0.22029467  0.019858043 -3.0976452e-07  -0.16131579 -0.0059082739 4.771784e-08            0   -2368.7376   -2368.7376    25346.786    19.988576    25.345952    50.030223      720 
    1050            0  0.080050813  0.019885063   0.22029468  0.019858052 -2.9299477e-07     -0.16126 -0.0052257172 4.0567168e-08            0   -2368.7376   -2368.7376    25346.786    19.988576    25.345952    50.030223      720 
    1051            0  0.080050829  0.024845123   0.22029469  0.019858066 -2.6974983e-07  -0.16123215 -0.0046679142 3.3474411e-08            0   -2368.7376   -2368.7376    25346.786    19.988576    25.345952    50.030223      720 
    1052            0  0.080050853  0.030359983   0.22029471  0.019858085 -2.3539061e-07  -0.16121261 -0.0041744317 2.4916495e-08            0   -2368.7376   -2368.7376    25346.786    19.988576    25.345952    50.030223      720 
    1053            0  0.080050881  0.035329103   0.22029473  0.019858107 -1.9527833e-07  -0.16119755 -0.0037675439 1.543788e-08            0   -2368.7376   -2368.7376    25346.786    19.988576    25.345952    50.030223      720 
    1054            0  0.080050925  0.040299177   0.22029477  0.019858141 -1.3399343e-07  -0.16118057 -0.0033194098 4.317429e-09            0   -2368.7376   -2368.7376    25346.786    19.988576    25.345952    50.030223      720 
    1055            0  0.080050988  0.045264006   0.22029482   0.01985819 -4.5638989e-08  -0.16116019 -0.0027691356 -6.8666735e-09            0   -2368.7376   -2368.7376    25346.786    19.988576    25.345952    50.030223      720 
    1056            0   0.08005103   0.05023098   0.22029485   0.01985822 1.564121e-08   -0.1611451 -0.0022349523 -1.1062109e-08            0   -2368.7376   -2368.7376    25346.786    19.988576    25.345952    50.030223      720 
    1057            0   0.08005103  0.057636023   0.22029485   0.01985822 1.564121e-08   -0.1611451 -0.0022349523 -1.1062109e-08            0   -2368.7376   -2368.7376    25346.786    19.988576    25.345952    50.030223      720 
Loop time of 0.0576532 on 1 procs for 11 steps with 720 atoms

97.1% CPU use with 1 MPI tasks x no OpenMP threads

Minimization stats:
  Stopping criterion = linesearch alpha is zero
  Energy initial, next-to-last, final = 
        -2368.73759582     -2368.73759582     -2368.73759582
  Force two-norm initial, final = 1.95306e-05 9.09303e-07
  Force max component initial, final = 2.40635e-06 7.71383e-08
  Final line search alpha, max atom move = 0.5 3.85692e-08
  Iterations, force evaluations = 11 22

MPI task timing breakdown:
Section |  min time  |  avg time  |  max time  |%varavg| %total
---------------------------------------------------------------
Pair    | 0.056708   | 0.056708   | 0.056708   |   0.0 | 98.36
Neigh   | 0          | 0          | 0          |   0.0 |  0.00
Comm    | 0.00021791 | 0.00021791 | 0.00021791 |   0.0 |  0.38
Output  | 0.00028706 | 0.00028706 | 0.00028706 |   0.0 |  0.50
Modify  | 0          | 0          | 0          |   0.0 |  0.00
Other   |            | 0.0004406  |            |       |  0.76

Nlocal:    720 ave 720 max 720 min
Histogram: 1 0 0 0 0 0 0 0 0 0
Nghost:    1271 ave 1271 max 1271 min
Histogram: 1 0 0 0 0 0 0 0 0 0
Neighs:    41800 ave 41800 max 41800 min
Histogram: 1 0 0 0 0 0 0 0 0 0

Total # of neighbors = 41800
Ave neighs/atom = 58.0556
Neighbor list builds = 0
Dangerous builds = 0
Elastic Constant C11all = 41.014171333601 GPa
Elastic Constant C22all = 43.3639577927045 GPa
Elastic Constant C33all = -9.85690506993819e-09 GPa
Elastic Constant C12all = 14.9086207426563 GPa
Elastic Constant C13all = 1.12367390301404e-05 GPa
Elastic Constant C23all = 7.78515265031922e-07 GPa
Elastic Constant C44all = -8.08000777396956e-10 GPa
Elastic Constant C55all = -7.12847002313085e-08 GPa
Elastic Constant C66all = 16.1145098828683 GPa
Elastic Constant C14all = -4.7477800002582e-07 GPa
Elastic Constant C15all = -4.20741237148594e-10 GPa
Elastic Constant C16all = 9.68770809354355e-10 GPa
Elastic Constant C24all = -3.27174961345378e-07 GPa
Elastic Constant C25all = -3.99587550892892e-10 GPa
Elastic Constant C26all = 6.6602325713655e-10 GPa
Elastic Constant C34all = -4.15903148587304e-07 GPa
Elastic Constant C35all = -6.1600867632177e-10 GPa
Elastic Constant C36all = 1.84859777325469e-09 GPa
Elastic Constant C45all = 2.49712589294314e-10 GPa
Elastic Constant C46all = -5.02788444842925e-10 GPa
Elastic Constant C56all = 0.111747936460926 GPa
Total wall time: 0:00:07
