datafile (written by JARVIS-FF) 

864 	 atoms 
1  atom types
0.0 25.614448842  xlo xhi
0.0 25.486054806  ylo yhi
0.0 47.623716494  zlo zhi
2.561444884 0E-9 0E-9  xy xz yz


Atoms 

     1   1 0.000000 24.938511998 3.250115575 16.586892711
     2   1 0.000000 26.219234440 15.993142978 16.586892711
     3   1 0.000000 12.131287577 3.250115575 16.586892711
     4   1 0.000000 13.412010019 15.993142978 16.586892711
     5   1 0.000000 5.727675366 24.488494580 16.586892711
     6   1 0.000000 4.446952924 11.745467177 16.586892711
     7   1 0.000000 18.534899787 24.488494580 16.586892711
     8   1 0.000000 17.254177345 11.745467177 16.586892711
     9   1 0.000000 4.446952924 4.022420266 14.144650839
    10   1 0.000000 5.727675366 16.765447669 14.144650839
    11   1 0.000000 17.254177345 4.022420266 14.144650839
    12   1 0.000000 18.534899787 16.765447669 14.144650839
    13   1 0.000000 23.657789555 21.399275816 12.923529903
    14   1 0.000000 22.377067113 8.656248413 12.923529903
    15   1 0.000000 10.850565134 21.399275816 12.923529903
    16   1 0.000000 9.569842692 8.656248413 12.923529903
    17   1 0.000000 23.657789555 25.260799271 14.144650839
    18   1 0.000000 22.377067113 12.517771868 14.144650839
    19   1 0.000000 10.850565134 25.260799271 14.144650839
    20   1 0.000000 9.569842692 12.517771868 14.144650839
    21   1 0.000000 21.096344671 3.636267921 15.365771775
    22   1 0.000000 22.377067113 16.379295324 15.365771775
    23   1 0.000000 8.289120250 3.636267921 15.365771775
    24   1 0.000000 9.569842692 16.379295324 15.365771775
    25   1 0.000000 27.499956882 21.013123470 14.144650839
    26   1 0.000000 26.219234440 8.270096067 14.144650839
    27   1 0.000000 14.692732461 21.013123470 14.144650839
    28   1 0.000000 13.412010019 8.270096067 14.144650839
    29   1 0.000000 27.499956882 24.874646926 15.365771775
    30   1 0.000000 26.219234440 12.131619523 15.365771775
    31   1 0.000000 14.692732461 24.874646926 15.365771775
    32   1 0.000000 13.412010019 12.131619523 15.365771775
    33   1 0.000000 5.727675366 20.626971125 15.365771775
    34   1 0.000000 4.446952924 7.883943722 15.365771775
    35   1 0.000000 18.534899787 20.626971125 15.365771775
    36   1 0.000000 17.254177345 7.883943722 15.365771775
    37   1 0.000000 2.525869261 6.146258167 14.144650839
    38   1 0.000000 3.806591703 18.889285570 14.144650839
    39   1 0.000000 15.333093682 6.146258167 14.144650839
    40   1 0.000000 16.613816124 18.889285570 14.144650839
    41   1 0.000000 6.368036587 1.898582366 14.144650839
    42   1 0.000000 7.648759029 14.641609769 14.144650839
    43   1 0.000000 19.175261008 1.898582366 14.144650839
    44   1 0.000000 20.455983450 14.641609769 14.144650839
    45   1 0.000000 6.368036587 5.760105821 15.365771775
    46   1 0.000000 7.648759029 18.503133224 15.365771775
    47   1 0.000000 19.175261008 5.760105821 15.365771775
    48   1 0.000000 20.455983450 18.503133224 15.365771775
    49   1 0.000000 25.578873219 23.136961371 14.144650839
    50   1 0.000000 24.298150777 10.393933968 14.144650839
    51   1 0.000000 12.771648798 23.136961371 14.144650839
    52   1 0.000000 11.490926356 10.393933968 14.144650839
    53   1 0.000000 23.017428334 1.512430020 15.365771775
    54   1 0.000000 24.298150777 14.255457423 15.365771775
    55   1 0.000000 10.210203913 1.512430020 15.365771775
    56   1 0.000000 11.490926356 14.255457423 15.365771775
    57   1 0.000000 24.298150777 6.532410512 12.923529903
    58   1 0.000000 25.578873219 19.275437915 12.923529903
    59   1 0.000000 11.490926356 6.532410512 12.923529903
    60   1 0.000000 12.771648798 19.275437915 12.923529903
    61   1 0.000000 3.806591703 22.750809025 15.365771775
    62   1 0.000000 2.525869261 10.007781622 15.365771775
    63   1 0.000000 16.613816124 22.750809025 15.365771775
    64   1 0.000000 15.333093682 10.007781622 15.365771775
    65   1 0.000000 1.245146819 1.126277675 16.586892711
    66   1 0.000000 2.525869261 13.869305078 16.586892711
    67   1 0.000000 14.052371240 1.126277675 16.586892711
    68   1 0.000000 15.333093682 13.869305078 16.586892711
    69   1 0.000000 8.929481471 23.523113716 12.923529903
    70   1 0.000000 7.648759029 10.780086313 12.923529903
    71   1 0.000000 21.736705892 23.523113716 12.923529903
    72   1 0.000000 20.455983450 10.780086313 12.923529903
    73   1 0.000000 25.578873219 5.760105821 15.365771775
    74   1 0.000000 26.859595661 18.503133224 15.365771775
    75   1 0.000000 12.771648798 5.760105821 15.365771775
    76   1 0.000000 14.052371240 18.503133224 15.365771775
    77   1 0.000000 3.806591703 1.512430020 15.365771775
    78   1 0.000000 5.087314145 14.255457423 15.365771775
    79   1 0.000000 16.613816124 1.512430020 15.365771775
    80   1 0.000000 17.894538566 14.255457423 15.365771775
    81   1 0.000000 3.806591703 5.373953476 16.586892711
    82   1 0.000000 5.087314145 18.116980879 16.586892711
    83   1 0.000000 16.613816124 5.373953476 16.586892711
    84   1 0.000000 17.894538566 18.116980879 16.586892711
    85   1 0.000000 23.017428334 22.750809025 15.365771775
    86   1 0.000000 21.736705892 10.007781622 15.365771775
    87   1 0.000000 10.210203913 22.750809025 15.365771775
    88   1 0.000000 8.929481471 10.007781622 15.365771775
    89   1 0.000000 21.736705892 2.284734711 12.923529903
    90   1 0.000000 23.017428334 15.027762114 12.923529903
    91   1 0.000000 8.929481471 2.284734711 12.923529903
    92   1 0.000000 10.210203913 15.027762114 12.923529903
    93   1 0.000000 21.736705892 6.146258167 14.144650839
    94   1 0.000000 23.017428334 18.889285570 14.144650839
    95   1 0.000000 8.929481471 6.146258167 14.144650839
    96   1 0.000000 10.210203913 18.889285570 14.144650839
    97   1 0.000000 2.525869261 23.523113716 12.923529903
    98   1 0.000000 1.245146819 10.780086313 12.923529903
    99   1 0.000000 15.333093682 23.523113716 12.923529903
   100   1 0.000000 14.052371240 10.780086313 12.923529903
   101   1 0.000000 25.578873219 1.898582366 14.144650839
   102   1 0.000000 26.859595661 14.641609769 14.144650839
   103   1 0.000000 12.771648798 1.898582366 14.144650839
   104   1 0.000000 14.052371240 14.641609769 14.144650839
   105   1 0.000000 6.368036587 23.136961371 14.144650839
   106   1 0.000000 5.087314145 10.393933968 14.144650839
   107   1 0.000000 19.175261008 23.136961371 14.144650839
   108   1 0.000000 17.894538566 10.393933968 14.144650839
   109   1 0.000000 1.885508040 3.636267921 15.365771775
   110   1 0.000000 3.166230482 16.379295324 15.365771775
   111   1 0.000000 14.692732461 3.636267921 15.365771775
   112   1 0.000000 15.973454903 16.379295324 15.365771775
   113   1 0.000000 8.289120250 24.874646926 15.365771775
   114   1 0.000000 7.008397808 12.131619523 15.365771775
   115   1 0.000000 21.096344671 24.874646926 15.365771775
   116   1 0.000000 19.815622229 12.131619523 15.365771775
   117   1 0.000000 5.727675366 3.250115575 16.586892711
   118   1 0.000000 7.008397808 15.993142978 16.586892711
   119   1 0.000000 18.534899787 3.250115575 16.586892711
   120   1 0.000000 19.815622229 15.993142978 16.586892711
   121   1 0.000000 24.938511998 20.626971125 15.365771775
   122   1 0.000000 23.657789555 7.883943722 15.365771775
   123   1 0.000000 12.131287577 20.626971125 15.365771775
   124   1 0.000000 10.850565134 7.883943722 15.365771775
   125   1 0.000000 23.657789555 0.160896811 12.923529903
   126   1 0.000000 24.938511998 12.903924214 12.923529903
   127   1 0.000000 10.850565134 0.160896811 12.923529903
   128   1 0.000000 12.131287577 12.903924214 12.923529903
   129   1 0.000000 23.657789555 4.022420266 14.144650839
   130   1 0.000000 24.938511998 16.765447669 14.144650839
   131   1 0.000000 10.850565134 4.022420266 14.144650839
   132   1 0.000000 12.131287577 16.765447669 14.144650839
   133   1 0.000000 4.446952924 21.399275816 12.923529903
   134   1 0.000000 3.166230482 8.656248413 12.923529903
   135   1 0.000000 17.254177345 21.399275816 12.923529903
   136   1 0.000000 15.973454903 8.656248413 12.923529903
   137   1 0.000000 4.446952924 25.260799271 14.144650839
   138   1 0.000000 3.166230482 12.517771868 14.144650839
   139   1 0.000000 17.254177345 25.260799271 14.144650839
   140   1 0.000000 15.973454903 12.517771868 14.144650839
   141   1 0.000000 8.289120250 21.013123470 14.144650839
   142   1 0.000000 7.008397808 8.270096067 14.144650839
   143   1 0.000000 21.096344671 21.013123470 14.144650839
   144   1 0.000000 19.815622229 8.270096067 14.144650839
   145   1 0.000000 23.657789555 2.091658538 20.250255518
   146   1 0.000000 24.938511998 14.834685942 20.250255518
   147   1 0.000000 10.850565134 2.091658538 20.250255518
   148   1 0.000000 12.131287577 14.834685942 20.250255518
   149   1 0.000000 4.446952924 23.330037544 20.250255518
   150   1 0.000000 3.166230482 10.587010140 20.250255518
   151   1 0.000000 17.254177345 23.330037544 20.250255518
   152   1 0.000000 15.973454903 10.587010140 20.250255518
   153   1 0.000000 3.166230482 2.863963229 17.808013646
   154   1 0.000000 4.446952924 15.606990633 17.808013646
   155   1 0.000000 15.973454903 2.863963229 17.808013646
   156   1 0.000000 17.254177345 15.606990633 17.808013646
   157   1 0.000000 22.377067113 20.240818779 16.586892711
   158   1 0.000000 21.096344671 7.497791376 16.586892711
   159   1 0.000000 9.569842692 20.240818779 16.586892711
   160   1 0.000000 8.289120250 7.497791376 16.586892711
   161   1 0.000000 22.377067113 24.102342235 17.808013646
   162   1 0.000000 21.096344671 11.359314832 17.808013646
   163   1 0.000000 9.569842692 24.102342235 17.808013646
   164   1 0.000000 8.289120250 11.359314832 17.808013646
   165   1 0.000000 19.815622229 2.477810884 19.029134582
   166   1 0.000000 21.096344671 15.220838287 19.029134582
   167   1 0.000000 7.008397808 2.477810884 19.029134582
   168   1 0.000000 8.289120250 15.220838287 19.029134582
   169   1 0.000000 26.219234440 19.854666434 17.808013646
   170   1 0.000000 24.938511998 7.111639031 17.808013646
   171   1 0.000000 13.412010019 19.854666434 17.808013646
   172   1 0.000000 12.131287577 7.111639031 17.808013646
   173   1 0.000000 26.219234440 23.716189889 19.029134582
   174   1 0.000000 24.938511998 10.973162486 19.029134582
   175   1 0.000000 13.412010019 23.716189889 19.029134582
   176   1 0.000000 12.131287577 10.973162486 19.029134582
   177   1 0.000000 4.446952924 19.468514088 19.029134582
   178   1 0.000000 3.166230482 6.725486685 19.029134582
   179   1 0.000000 17.254177345 19.468514088 19.029134582
   180   1 0.000000 15.973454903 6.725486685 19.029134582
   181   1 0.000000 1.245146819 4.987801130 17.808013646
   182   1 0.000000 2.525869261 17.730828533 17.808013646
   183   1 0.000000 14.052371240 4.987801130 17.808013646
   184   1 0.000000 15.333093682 17.730828533 17.808013646
   185   1 0.000000 5.087314145 0.740125329 17.808013646
   186   1 0.000000 6.368036587 13.483152732 17.808013646
   187   1 0.000000 17.894538566 0.740125329 17.808013646
   188   1 0.000000 19.175261008 13.483152732 17.808013646
   189   1 0.000000 5.087314145 4.601648784 19.029134582
   190   1 0.000000 6.368036587 17.344676188 19.029134582
   191   1 0.000000 17.894538566 4.601648784 19.029134582
   192   1 0.000000 19.175261008 17.344676188 19.029134582
   193   1 0.000000 24.298150777 21.978504334 17.808013646
   194   1 0.000000 23.017428334 9.235476931 17.808013646
   195   1 0.000000 11.490926356 21.978504334 17.808013646
   196   1 0.000000 10.210203913 9.235476931 17.808013646
   197   1 0.000000 21.736705892 0.353972983 19.029134582
   198   1 0.000000 23.017428334 13.097000387 19.029134582
   199   1 0.000000 8.929481471 0.353972983 19.029134582
   200   1 0.000000 10.210203913 13.097000387 19.029134582
   201   1 0.000000 23.017428334 5.373953476 16.586892711
   202   1 0.000000 24.298150777 18.116980879 16.586892711
   203   1 0.000000 10.210203913 5.373953476 16.586892711
   204   1 0.000000 11.490926356 18.116980879 16.586892711
   205   1 0.000000 2.525869261 21.592351989 19.029134582
   206   1 0.000000 1.245146819 8.849324585 19.029134582
   207   1 0.000000 15.333093682 21.592351989 19.029134582
   208   1 0.000000 14.052371240 8.849324585 19.029134582
   209   1 0.000000 28.140318103 25.453875444 20.250255518
   210   1 0.000000 26.859595661 12.710848041 20.250255518
   211   1 0.000000 15.333093682 25.453875444 20.250255518
   212   1 0.000000 14.052371240 12.710848041 20.250255518
   213   1 0.000000 7.648759029 22.364656680 16.586892711
   214   1 0.000000 6.368036587 9.621629277 16.586892711
   215   1 0.000000 20.455983450 22.364656680 16.586892711
   216   1 0.000000 19.175261008 9.621629277 16.586892711
   217   1 0.000000 24.298150777 4.601648784 19.029134582
   218   1 0.000000 25.578873219 17.344676188 19.029134582
   219   1 0.000000 11.490926356 4.601648784 19.029134582
   220   1 0.000000 12.771648798 17.344676188 19.029134582
   221   1 0.000000 2.525869261 0.353972983 19.029134582
   222   1 0.000000 3.806591703 13.097000387 19.029134582
   223   1 0.000000 15.333093682 0.353972983 19.029134582
   224   1 0.000000 16.613816124 13.097000387 19.029134582
   225   1 0.000000 2.525869261 4.215496439 20.250255518
   226   1 0.000000 3.806591703 16.958523842 20.250255518
   227   1 0.000000 15.333093682 4.215496439 20.250255518
   228   1 0.000000 16.613816124 16.958523842 20.250255518
   229   1 0.000000 21.736705892 21.592351989 19.029134582
   230   1 0.000000 20.455983450 8.849324585 19.029134582
   231   1 0.000000 8.929481471 21.592351989 19.029134582
   232   1 0.000000 7.648759029 8.849324585 19.029134582
   233   1 0.000000 20.455983450 1.126277675 16.586892711
   234   1 0.000000 21.736705892 13.869305078 16.586892711
   235   1 0.000000 7.648759029 1.126277675 16.586892711
   236   1 0.000000 8.929481471 13.869305078 16.586892711
   237   1 0.000000 20.455983450 4.987801130 17.808013646
   238   1 0.000000 21.736705892 17.730828533 17.808013646
   239   1 0.000000 7.648759029 4.987801130 17.808013646
   240   1 0.000000 8.929481471 17.730828533 17.808013646
   241   1 0.000000 26.859595661 22.364656680 16.586892711
   242   1 0.000000 25.578873219 9.621629277 16.586892711
   243   1 0.000000 14.052371240 22.364656680 16.586892711
   244   1 0.000000 12.771648798 9.621629277 16.586892711
   245   1 0.000000 24.298150777 0.740125329 17.808013646
   246   1 0.000000 25.578873219 13.483152732 17.808013646
   247   1 0.000000 11.490926356 0.740125329 17.808013646
   248   1 0.000000 12.771648798 13.483152732 17.808013646
   249   1 0.000000 5.087314145 21.978504334 17.808013646
   250   1 0.000000 3.806591703 9.235476931 17.808013646
   251   1 0.000000 17.894538566 21.978504334 17.808013646
   252   1 0.000000 16.613816124 9.235476931 17.808013646
   253   1 0.000000 0.604785598 2.477810884 19.029134582
   254   1 0.000000 1.885508040 15.220838287 19.029134582
   255   1 0.000000 13.412010019 2.477810884 19.029134582
   256   1 0.000000 14.692732461 15.220838287 19.029134582
   257   1 0.000000 7.008397808 23.716189889 19.029134582
   258   1 0.000000 5.727675366 10.973162486 19.029134582
   259   1 0.000000 19.815622229 23.716189889 19.029134582
   260   1 0.000000 18.534899787 10.973162486 19.029134582
   261   1 0.000000 4.446952924 2.091658538 20.250255518
   262   1 0.000000 5.727675366 14.834685942 20.250255518
   263   1 0.000000 17.254177345 2.091658538 20.250255518
   264   1 0.000000 18.534899787 14.834685942 20.250255518
   265   1 0.000000 23.657789555 19.468514088 19.029134582
   266   1 0.000000 22.377067113 6.725486685 19.029134582
   267   1 0.000000 10.850565134 19.468514088 19.029134582
   268   1 0.000000 9.569842692 6.725486685 19.029134582
   269   1 0.000000 24.938511998 24.488494580 16.586892711
   270   1 0.000000 23.657789555 11.745467177 16.586892711
   271   1 0.000000 12.131287577 24.488494580 16.586892711
   272   1 0.000000 10.850565134 11.745467177 16.586892711
   273   1 0.000000 22.377067113 2.863963229 17.808013646
   274   1 0.000000 23.657789555 15.606990633 17.808013646
   275   1 0.000000 9.569842692 2.863963229 17.808013646
   276   1 0.000000 10.850565134 15.606990633 17.808013646
   277   1 0.000000 3.166230482 20.240818779 16.586892711
   278   1 0.000000 1.885508040 7.497791376 16.586892711
   279   1 0.000000 15.973454903 20.240818779 16.586892711
   280   1 0.000000 14.692732461 7.497791376 16.586892711
   281   1 0.000000 3.166230482 24.102342235 17.808013646
   282   1 0.000000 1.885508040 11.359314832 17.808013646
   283   1 0.000000 15.973454903 24.102342235 17.808013646
   284   1 0.000000 14.692732461 11.359314832 17.808013646
   285   1 0.000000 7.008397808 19.854666434 17.808013646
   286   1 0.000000 5.727675366 7.111639031 17.808013646
   287   1 0.000000 19.815622229 19.854666434 17.808013646
   288   1 0.000000 18.534899787 7.111639031 17.808013646
   289   1 0.000000 22.377067113 0.933201502 23.913618325
   290   1 0.000000 23.657789555 13.676228905 23.913618325
   291   1 0.000000 9.569842692 0.933201502 23.913618325
   292   1 0.000000 10.850565134 13.676228905 23.913618325
   293   1 0.000000 3.166230482 22.171580507 23.913618325
   294   1 0.000000 1.885508040 9.428553104 23.913618325
   295   1 0.000000 15.973454903 22.171580507 23.913618325
   296   1 0.000000 14.692732461 9.428553104 23.913618325
   297   1 0.000000 1.885508040 1.705506193 21.471376454
   298   1 0.000000 3.166230482 14.448533596 21.471376454
   299   1 0.000000 14.692732461 1.705506193 21.471376454
   300   1 0.000000 15.973454903 14.448533596 21.471376454
   301   1 0.000000 21.096344671 19.082361743 20.250255518
   302   1 0.000000 19.815622229 6.339334339 20.250255518
   303   1 0.000000 8.289120250 19.082361743 20.250255518
   304   1 0.000000 7.008397808 6.339334339 20.250255518
   305   1 0.000000 21.096344671 22.943885198 21.471376454
   306   1 0.000000 19.815622229 10.200857795 21.471376454
   307   1 0.000000 8.289120250 22.943885198 21.471376454
   308   1 0.000000 7.008397808 10.200857795 21.471376454
   309   1 0.000000 18.534899787 1.319353847 22.692497389
   310   1 0.000000 19.815622229 14.062381250 22.692497389
   311   1 0.000000 5.727675366 1.319353847 22.692497389
   312   1 0.000000 7.008397808 14.062381250 22.692497389
   313   1 0.000000 24.938511998 18.696209397 21.471376454
   314   1 0.000000 23.657789555 5.953181994 21.471376454
   315   1 0.000000 12.131287577 18.696209397 21.471376454
   316   1 0.000000 10.850565134 5.953181994 21.471376454
   317   1 0.000000 24.938511998 22.557732852 22.692497389
   318   1 0.000000 23.657789555 9.814705449 22.692497389
   319   1 0.000000 12.131287577 22.557732852 22.692497389
   320   1 0.000000 10.850565134 9.814705449 22.692497389
   321   1 0.000000 3.166230482 18.310057051 22.692497389
   322   1 0.000000 1.885508040 5.567029648 22.692497389
   323   1 0.000000 15.973454903 18.310057051 22.692497389
   324   1 0.000000 14.692732461 5.567029648 22.692497389
   325   1 0.000000 25.578873219 3.829344093 21.471376454
   326   1 0.000000 26.859595661 16.572371496 21.471376454
   327   1 0.000000 12.771648798 3.829344093 21.471376454
   328   1 0.000000 14.052371240 16.572371496 21.471376454
   329   1 0.000000 6.368036587 25.067723099 21.471376454
   330   1 0.000000 5.087314145 12.324695695 21.471376454
   331   1 0.000000 19.175261008 25.067723099 21.471376454
   332   1 0.000000 17.894538566 12.324695695 21.471376454
   333   1 0.000000 3.806591703 3.443191748 22.692497389
   334   1 0.000000 5.087314145 16.186219151 22.692497389
   335   1 0.000000 16.613816124 3.443191748 22.692497389
   336   1 0.000000 17.894538566 16.186219151 22.692497389
   337   1 0.000000 23.017428334 20.820047298 21.471376454
   338   1 0.000000 21.736705892 8.077019894 21.471376454
   339   1 0.000000 10.210203913 20.820047298 21.471376454
   340   1 0.000000 8.929481471 8.077019894 21.471376454
   341   1 0.000000 23.017428334 24.681570753 22.692497389
   342   1 0.000000 21.736705892 11.938543350 22.692497389
   343   1 0.000000 10.210203913 24.681570753 22.692497389
   344   1 0.000000 8.929481471 11.938543350 22.692497389
   345   1 0.000000 21.736705892 4.215496439 20.250255518
   346   1 0.000000 23.017428334 16.958523842 20.250255518
   347   1 0.000000 8.929481471 4.215496439 20.250255518
   348   1 0.000000 10.210203913 16.958523842 20.250255518
   349   1 0.000000 26.859595661 20.433894952 22.692497389
   350   1 0.000000 25.578873219 7.690867549 22.692497389
   351   1 0.000000 14.052371240 20.433894952 22.692497389
   352   1 0.000000 12.771648798 7.690867549 22.692497389
   353   1 0.000000 26.859595661 24.295418407 23.913618325
   354   1 0.000000 25.578873219 11.552391004 23.913618325
   355   1 0.000000 14.052371240 24.295418407 23.913618325
   356   1 0.000000 12.771648798 11.552391004 23.913618325
   357   1 0.000000 6.368036587 21.206199643 20.250255518
   358   1 0.000000 5.087314145 8.463172240 20.250255518
   359   1 0.000000 19.175261008 21.206199643 20.250255518
   360   1 0.000000 17.894538566 8.463172240 20.250255518
   361   1 0.000000 23.017428334 3.443191748 22.692497389
   362   1 0.000000 24.298150777 16.186219151 22.692497389
   363   1 0.000000 10.210203913 3.443191748 22.692497389
   364   1 0.000000 11.490926356 16.186219151 22.692497389
   365   1 0.000000 3.806591703 24.681570753 22.692497389
   366   1 0.000000 2.525869261 11.938543350 22.692497389
   367   1 0.000000 16.613816124 24.681570753 22.692497389
   368   1 0.000000 15.333093682 11.938543350 22.692497389
   369   1 0.000000 1.245146819 3.057039402 23.913618325
   370   1 0.000000 2.525869261 15.800066805 23.913618325
   371   1 0.000000 14.052371240 3.057039402 23.913618325
   372   1 0.000000 15.333093682 15.800066805 23.913618325
   373   1 0.000000 20.455983450 20.433894952 22.692497389
   374   1 0.000000 19.175261008 7.690867549 22.692497389
   375   1 0.000000 7.648759029 20.433894952 22.692497389
   376   1 0.000000 6.368036587 7.690867549 22.692497389
   377   1 0.000000 21.736705892 25.453875444 20.250255518
   378   1 0.000000 20.455983450 12.710848041 20.250255518
   379   1 0.000000 8.929481471 25.453875444 20.250255518
   380   1 0.000000 7.648759029 12.710848041 20.250255518
   381   1 0.000000 19.175261008 3.829344093 21.471376454
   382   1 0.000000 20.455983450 16.572371496 21.471376454
   383   1 0.000000 6.368036587 3.829344093 21.471376454
   384   1 0.000000 7.648759029 16.572371496 21.471376454
   385   1 0.000000 25.578873219 21.206199643 20.250255518
   386   1 0.000000 24.298150777 8.463172240 20.250255518
   387   1 0.000000 12.771648798 21.206199643 20.250255518
   388   1 0.000000 11.490926356 8.463172240 20.250255518
   389   1 0.000000 25.578873219 25.067723099 21.471376454
   390   1 0.000000 24.298150777 12.324695695 21.471376454
   391   1 0.000000 12.771648798 25.067723099 21.471376454
   392   1 0.000000 11.490926356 12.324695695 21.471376454
   393   1 0.000000 3.806591703 20.820047298 21.471376454
   394   1 0.000000 2.525869261 8.077019894 21.471376454
   395   1 0.000000 16.613816124 20.820047298 21.471376454
   396   1 0.000000 15.333093682 8.077019894 21.471376454
   397   1 0.000000 24.938511998 1.319353847 22.692497389
   398   1 0.000000 26.219234440 14.062381250 22.692497389
   399   1 0.000000 12.131287577 1.319353847 22.692497389
   400   1 0.000000 13.412010019 14.062381250 22.692497389
   401   1 0.000000 5.727675366 22.557732852 22.692497389
   402   1 0.000000 4.446952924 9.814705449 22.692497389
   403   1 0.000000 18.534899787 22.557732852 22.692497389
   404   1 0.000000 17.254177345 9.814705449 22.692497389
   405   1 0.000000 3.166230482 0.933201502 23.913618325
   406   1 0.000000 4.446952924 13.676228905 23.913618325
   407   1 0.000000 15.973454903 0.933201502 23.913618325
   408   1 0.000000 17.254177345 13.676228905 23.913618325
   409   1 0.000000 22.377067113 18.310057051 22.692497389
   410   1 0.000000 21.096344671 5.567029648 22.692497389
   411   1 0.000000 9.569842692 18.310057051 22.692497389
   412   1 0.000000 8.289120250 5.567029648 22.692497389
   413   1 0.000000 23.657789555 23.330037544 20.250255518
   414   1 0.000000 22.377067113 10.587010140 20.250255518
   415   1 0.000000 10.850565134 23.330037544 20.250255518
   416   1 0.000000 9.569842692 10.587010140 20.250255518
   417   1 0.000000 21.096344671 1.705506193 21.471376454
   418   1 0.000000 22.377067113 14.448533596 21.471376454
   419   1 0.000000 8.289120250 1.705506193 21.471376454
   420   1 0.000000 9.569842692 14.448533596 21.471376454
   421   1 0.000000 27.499956882 19.082361743 20.250255518
   422   1 0.000000 26.219234440 6.339334339 20.250255518
   423   1 0.000000 14.692732461 19.082361743 20.250255518
   424   1 0.000000 13.412010019 6.339334339 20.250255518
   425   1 0.000000 27.499956882 22.943885198 21.471376454
   426   1 0.000000 26.219234440 10.200857795 21.471376454
   427   1 0.000000 14.692732461 22.943885198 21.471376454
   428   1 0.000000 13.412010019 10.200857795 21.471376454
   429   1 0.000000 5.727675366 18.696209397 21.471376454
   430   1 0.000000 4.446952924 5.953181994 21.471376454
   431   1 0.000000 18.534899787 18.696209397 21.471376454
   432   1 0.000000 17.254177345 5.953181994 21.471376454
   433   1 0.000000 23.657789555 25.260799271 27.576981132
   434   1 0.000000 22.377067113 12.517771868 27.576981132
   435   1 0.000000 10.850565134 25.260799271 27.576981132
   436   1 0.000000 9.569842692 12.517771868 27.576981132
   437   1 0.000000 27.499956882 21.013123470 27.576981132
   438   1 0.000000 26.219234440 8.270096067 27.576981132
   439   1 0.000000 14.692732461 21.013123470 27.576981132
   440   1 0.000000 13.412010019 8.270096067 27.576981132
   441   1 0.000000 0.604785598 0.547049156 25.134739261
   442   1 0.000000 1.885508040 13.290076559 25.134739261
   443   1 0.000000 13.412010019 0.547049156 25.134739261
   444   1 0.000000 14.692732461 13.290076559 25.134739261
   445   1 0.000000 19.815622229 17.923904706 23.913618325
   446   1 0.000000 18.534899787 5.180877303 23.913618325
   447   1 0.000000 7.008397808 17.923904706 23.913618325
   448   1 0.000000 5.727675366 5.180877303 23.913618325
   449   1 0.000000 19.815622229 21.785428161 25.134739261
   450   1 0.000000 18.534899787 9.042400758 25.134739261
   451   1 0.000000 7.008397808 21.785428161 25.134739261
   452   1 0.000000 5.727675366 9.042400758 25.134739261
   453   1 0.000000 17.254177345 0.160896811 26.355860197
   454   1 0.000000 18.534899787 12.903924214 26.355860197
   455   1 0.000000 4.446952924 0.160896811 26.355860197
   456   1 0.000000 5.727675366 12.903924214 26.355860197
   457   1 0.000000 23.657789555 17.537752360 25.134739261
   458   1 0.000000 22.377067113 4.794724957 25.134739261
   459   1 0.000000 10.850565134 17.537752360 25.134739261
   460   1 0.000000 9.569842692 4.794724957 25.134739261
   461   1 0.000000 23.657789555 21.399275816 26.355860197
   462   1 0.000000 22.377067113 8.656248413 26.355860197
   463   1 0.000000 10.850565134 21.399275816 26.355860197
   464   1 0.000000 9.569842692 8.656248413 26.355860197
   465   1 0.000000 1.885508040 17.151600015 26.355860197
   466   1 0.000000 0.604785598 4.408572612 26.355860197
   467   1 0.000000 14.692732461 17.151600015 26.355860197
   468   1 0.000000 13.412010019 4.408572612 26.355860197
   469   1 0.000000 24.298150777 2.670887057 25.134739261
   470   1 0.000000 25.578873219 15.413914460 25.134739261
   471   1 0.000000 11.490926356 2.670887057 25.134739261
   472   1 0.000000 12.771648798 15.413914460 25.134739261
   473   1 0.000000 5.087314145 23.909266062 25.134739261
   474   1 0.000000 3.806591703 11.166238659 25.134739261
   475   1 0.000000 17.894538566 23.909266062 25.134739261
   476   1 0.000000 16.613816124 11.166238659 25.134739261
   477   1 0.000000 2.525869261 2.284734711 26.355860197
   478   1 0.000000 3.806591703 15.027762114 26.355860197
   479   1 0.000000 15.333093682 2.284734711 26.355860197
   480   1 0.000000 16.613816124 15.027762114 26.355860197
   481   1 0.000000 21.736705892 19.661590261 25.134739261
   482   1 0.000000 20.455983450 6.918562858 25.134739261
   483   1 0.000000 8.929481471 19.661590261 25.134739261
   484   1 0.000000 7.648759029 6.918562858 25.134739261
   485   1 0.000000 21.736705892 23.523113716 26.355860197
   486   1 0.000000 20.455983450 10.780086313 26.355860197
   487   1 0.000000 8.929481471 23.523113716 26.355860197
   488   1 0.000000 7.648759029 10.780086313 26.355860197
   489   1 0.000000 20.455983450 3.057039402 23.913618325
   490   1 0.000000 21.736705892 15.800066805 23.913618325
   491   1 0.000000 7.648759029 3.057039402 23.913618325
   492   1 0.000000 8.929481471 15.800066805 23.913618325
   493   1 0.000000 25.578873219 19.275437915 26.355860197
   494   1 0.000000 24.298150777 6.532410512 26.355860197
   495   1 0.000000 12.771648798 19.275437915 26.355860197
   496   1 0.000000 11.490926356 6.532410512 26.355860197
   497   1 0.000000 25.578873219 23.136961371 27.576981132
   498   1 0.000000 24.298150777 10.393933968 27.576981132
   499   1 0.000000 12.771648798 23.136961371 27.576981132
   500   1 0.000000 11.490926356 10.393933968 27.576981132
   501   1 0.000000 5.087314145 20.047742606 23.913618325
   502   1 0.000000 3.806591703 7.304715203 23.913618325
   503   1 0.000000 17.894538566 20.047742606 23.913618325
   504   1 0.000000 16.613816124 7.304715203 23.913618325
   505   1 0.000000 21.736705892 2.284734711 26.355860197
   506   1 0.000000 23.017428334 15.027762114 26.355860197
   507   1 0.000000 8.929481471 2.284734711 26.355860197
   508   1 0.000000 10.210203913 15.027762114 26.355860197
   509   1 0.000000 2.525869261 23.523113716 26.355860197
   510   1 0.000000 1.245146819 10.780086313 26.355860197
   511   1 0.000000 15.333093682 23.523113716 26.355860197