LAMMPS data file via write_data, version 13 Jan 2016, timestep = 301

864 atoms
1 atom types

1.5362271526437249e-01 2.5460826126735622e+01 xlo xhi
1.5116379049088616e-01 2.5334891015509093e+01 ylo yhi
3.4782993787877544e-03 4.7620238194621216e+01 zlo zhi
2.5310598188538798e+00 0.0000000000000000e+00 0.0000000000000000e+00 xy xz yz

Masses

1 26.982

Atoms # charge

1 1 0.0000000000000000e+00 2.4801717111587418e+01 3.3705227214702007e+00 1.6526736747116679e+01 0 0 0
2 1 0.0000000000000000e+00 2.6067247021014349e+01 1.5962386333979305e+01 1.6526736747116644e+01 0 0 0
3 1 0.0000000000000000e+00 1.2148115405851790e+01 3.3705227214701998e+00 1.6526736747116676e+01 0 0 0
4 1 0.0000000000000000e+00 1.3413645315278728e+01 1.5962386333979302e+01 1.6526736747116644e+01 0 0 0
5 1 0.0000000000000000e+00 5.8216276648498981e+00 2.4356915148014238e+01 1.6526752157379910e+01 0 0 0
6 1 0.0000000000000000e+00 4.5560977554229689e+00 1.1765051535505130e+01 1.6526752157379875e+01 0 0 0
7 1 0.0000000000000000e+00 1.8475229370585524e+01 2.4356915148014242e+01 1.6526752157379910e+01 0 0 0
8 1 0.0000000000000000e+00 1.7209699461158600e+01 1.1765051535505130e+01 1.6526752157379875e+01 0 0 0
9 1 0.0000000000000000e+00 4.5796729994954850e+00 4.1549615628120424e+00 1.4210870869875977e+01 0 0 0
10 1 0.0000000000000000e+00 5.8452029089224276e+00 1.6746825175321160e+01 1.4210870869875956e+01 0 0 0
11 1 0.0000000000000000e+00 1.7233274705231114e+01 4.1549615628120442e+00 1.4210870869875977e+01 0 0 0
12 1 0.0000000000000000e+00 1.8498804614658052e+01 1.6746825175321163e+01 1.4210870869875956e+01 0 0 0
13 1 0.0000000000000000e+00 2.3545363975748245e+01 2.1312086622209733e+01 1.3109885178878026e+01 0 0 0
14 1 0.0000000000000000e+00 2.2279834066321310e+01 8.7202230097005877e+00 1.3109885178878008e+01 0 0 0
15 1 0.0000000000000000e+00 1.0891762270012622e+01 2.1312086622209733e+01 1.3109885178878020e+01 0 0 0
16 1 0.0000000000000000e+00 9.6262323605856892e+00 8.7202230097005895e+00 1.3109885178878010e+01 0 0 0
17 1 0.0000000000000000e+00 2.3513034750070734e+01 2.5068849250170519e+01 1.4203777225096189e+01 0 0 0
18 1 0.0000000000000000e+00 2.2247504840643799e+01 1.2476985637661409e+01 1.4203777225096145e+01 0 0 0
19 1 0.0000000000000000e+00 1.0859433044335111e+01 2.5068849250170519e+01 1.4203777225096189e+01 0 0 0
20 1 0.0000000000000000e+00 9.5939031349081692e+00 1.2476985637661405e+01 1.4203777225096145e+01 0 0 0
21 1 0.0000000000000000e+00 2.0977937053713319e+01 3.7624147332094902e+00 1.5359144729199713e+01 0 0 0
22 1 0.0000000000000000e+00 2.2243466963140261e+01 1.6354278345718605e+01 1.5359144729199681e+01 0 0 0
23 1 0.0000000000000000e+00 8.3243353479776943e+00 3.7624147332094924e+00 1.5359144729199713e+01 0 0 0
24 1 0.0000000000000000e+00 9.5898652574046377e+00 1.6354278345718605e+01 1.5359144729199681e+01 0 0 0
25 1 0.0000000000000000e+00 2.7279327659404665e+01 2.0904463903858471e+01 1.4203772320037757e+01 0 0 0
26 1 0.0000000000000000e+00 2.6013797749977723e+01 8.3126002913493444e+00 1.4203772320037741e+01 0 0 0
27 1 0.0000000000000000e+00 1.4625725953669036e+01 2.0904463903858471e+01 1.4203772320037752e+01 0 0 0
28 1 0.0000000000000000e+00 1.3360196044242098e+01 8.3126002913493462e+00 1.4203772320037736e+01 0 0 0
29 1 0.0000000000000000e+00 2.7340153695610166e+01 2.4745154805218498e+01 1.5391611899191467e+01 0 0 0
30 1 0.0000000000000000e+00 2.6074623786183228e+01 1.2153291192709389e+01 1.5391611899191425e+01 0 0 0
31 1 0.0000000000000000e+00 1.4686551989874539e+01 2.4745154805218505e+01 1.5391611899191467e+01 0 0 0
32 1 0.0000000000000000e+00 1.3421022080447605e+01 1.2153291192709389e+01 1.5391611899191425e+01 0 0 0
33 1 0.0000000000000000e+00 5.8290874635547141e+00 2.0512620101433175e+01 1.5359302026848050e+01 0 0 0
34 1 0.0000000000000000e+00 4.5635575541277777e+00 7.9207564889240558e+00 1.5359302026848034e+01 0 0 0
35 1 0.0000000000000000e+00 1.8482689169290342e+01 2.0512620101433175e+01 1.5359302026848045e+01 0 0 0
36 1 0.0000000000000000e+00 1.7217159259863404e+01 7.9207564889240540e+00 1.5359302026848034e+01 0 0 0
37 1 0.0000000000000000e+00 2.5946380402875184e+00 6.2075091214051445e+00 1.4178021802139762e+01 0 0 0
38 1 0.0000000000000000e+00 3.8601679497144588e+00 1.8799372733914272e+01 1.4178021802139760e+01 0 0 0
39 1 0.0000000000000000e+00 1.5248239746023140e+01 6.2075091214051472e+00 1.4178021802139762e+01 0 0 0
40 1 0.0000000000000000e+00 1.6513769655450083e+01 1.8799372733914275e+01 1.4178021802139760e+01 0 0 0
41 1 0.0000000000000000e+00 6.4229529543699178e+00 1.9743631120479590e+00 1.4178054203617773e+01 0 0 0
42 1 0.0000000000000000e+00 7.6884828637968656e+00 1.4566226724557074e+01 1.4178054203617739e+01 0 0 0
43 1 0.0000000000000000e+00 1.9076554660105543e+01 1.9743631120479583e+00 1.4178054203617773e+01 0 0 0
44 1 0.0000000000000000e+00 2.0342084569532496e+01 1.4566226724557069e+01 1.4178054203617741e+01 0 0 0
45 1 0.0000000000000000e+00 6.4377239606486985e+00 5.8359939800422191e+00 1.5286726103436079e+01 0 0 0
46 1 0.0000000000000000e+00 7.7032538700756366e+00 1.8427857592551341e+01 1.5286726103436068e+01 0 0 0
47 1 0.0000000000000000e+00 1.9091325666384328e+01 5.8359939800422218e+00 1.5286726103436079e+01 0 0 0
48 1 0.0000000000000000e+00 2.0356855575811270e+01 1.8427857592551341e+01 1.5286726103436068e+01 0 0 0
49 1 0.0000000000000000e+00 2.5380209989280715e+01 2.2972238291645692e+01 1.4173857641740298e+01 0 0 0
50 1 0.0000000000000000e+00 2.4114680079853780e+01 1.0380374679136573e+01 1.4173857641740266e+01 0 0 0
51 1 0.0000000000000000e+00 1.2726608283545090e+01 2.2972238291645692e+01 1.4173857641740298e+01 0 0 0
52 1 0.0000000000000000e+00 1.1461078374118150e+01 1.0380374679136574e+01 1.4173857641740266e+01 0 0 0
53 1 0.0000000000000000e+00 2.2915244589519279e+01 1.6480730038391727e+00 1.5418504469756796e+01 0 0 0
54 1 0.0000000000000000e+00 2.4180774498946221e+01 1.4239936616348274e+01 1.5418504469756764e+01 0 0 0
55 1 0.0000000000000000e+00 1.0261642883783651e+01 1.6480730038391724e+00 1.5418504469756796e+01 0 0 0
56 1 0.0000000000000000e+00 1.1527172793210596e+01 1.4239936616348274e+01 1.5418504469756764e+01 0 0 0
57 1 0.0000000000000000e+00 2.4201768287539103e+01 6.5993041442364486e+00 1.3138145059814057e+01 0 0 0
58 1 0.0000000000000000e+00 2.5467298196966038e+01 1.9191167756745589e+01 1.3138145059814057e+01 0 0 0
59 1 0.0000000000000000e+00 1.1548166581803482e+01 6.5993041442364486e+00 1.3138145059814057e+01 0 0 0
60 1 0.0000000000000000e+00 1.2813696491230415e+01 1.9191167756745589e+01 1.3138145059814057e+01 0 0 0
61 1 0.0000000000000000e+00 3.9194222290158911e+00 2.2651857331555089e+01 1.5418525402815105e+01 0 0 0
62 1 0.0000000000000000e+00 2.6538923195889597e+00 1.0059993719045968e+01 1.5418525402815073e+01 0 0 0
63 1 0.0000000000000000e+00 1.6573023934751514e+01 2.2651857331555089e+01 1.5418525402815099e+01 0 0 0
64 1 0.0000000000000000e+00 1.5307494025324582e+01 1.0059993719045970e+01 1.5418525402815073e+01 0 0 0
65 1 0.0000000000000000e+00 1.3895529557633670e+00 1.2691678777046402e+00 1.6512540227341692e+01 0 0 0
66 1 0.0000000000000000e+00 2.6550828651903116e+00 1.3861031490213740e+01 1.6512540227341653e+01 0 0 0
67 1 0.0000000000000000e+00 1.4043154661498997e+01 1.2691678777046385e+00 1.6512540227341692e+01 0 0 0
68 1 0.0000000000000000e+00 1.5308684570925937e+01 1.3861031490213744e+01 1.6512540227341653e+01 0 0 0
69 1 0.0000000000000000e+00 8.9739141750642872e+00 2.3436685649724797e+01 1.3138136651927800e+01 0 0 0
70 1 0.0000000000000000e+00 7.7083842656373607e+00 1.0844822037215653e+01 1.3138136651927766e+01 0 0 0
71 1 0.0000000000000000e+00 2.1627515880799915e+01 2.3436685649724797e+01 1.3138136651927800e+01 0 0 0
72 1 0.0000000000000000e+00 2.0361985971372981e+01 1.0844822037215653e+01 1.3138136651927766e+01 0 0 0
73 1 0.0000000000000000e+00 2.5449512079356857e+01 5.8269702497025202e+00 1.5386300371860946e+01 0 0 0
74 1 0.0000000000000000e+00 2.6715041988783803e+01 1.8418833862211638e+01 1.5386300371860935e+01 0 0 0
75 1 0.0000000000000000e+00 1.2795910373621238e+01 5.8269702497025202e+00 1.5386300371860946e+01 0 0 0
76 1 0.0000000000000000e+00 1.4061440283048174e+01 1.8418833862211638e+01 1.5386300371860935e+01 0 0 0
77 1 0.0000000000000000e+00 3.8971779002949396e+00 1.6299749175201816e+00 1.5278067737820763e+01 0 0 0
78 1 0.0000000000000000e+00 5.1627078097218826e+00 1.4221838530029288e+01 1.5278067737820718e+01 0 0 0
79 1 0.0000000000000000e+00 1.6550779606030559e+01 1.6299749175201823e+00 1.5278067737820768e+01 0 0 0
80 1 0.0000000000000000e+00 1.7816309515457505e+01 1.4221838530029293e+01 1.5278067737820724e+01 0 0 0
81 1 0.0000000000000000e+00 3.9212932417782884e+00 5.4793303921239547e+00 1.6540773160858443e+01 0 0 0
82 1 0.0000000000000000e+00 5.1868231512052265e+00 1.8071194004633064e+01 1.6540773160858421e+01 0 0 0
83 1 0.0000000000000000e+00 1.6574894947513911e+01 5.4793303921239547e+00 1.6540773160858439e+01 0 0 0
84 1 0.0000000000000000e+00 1.7840424856940849e+01 1.8071194004633064e+01 1.6540773160858421e+01 0 0 0
85 1 0.0000000000000000e+00 2.2888629687469919e+01 2.2617125268359612e+01 1.5413161538361647e+01 0 0 0
86 1 0.0000000000000000e+00 2.1623099778042985e+01 1.0025261655850496e+01 1.5413161538361621e+01 0 0 0
87 1 0.0000000000000000e+00 1.0235027981734298e+01 2.2617125268359612e+01 1.5413161538361647e+01 0 0 0
88 1 0.0000000000000000e+00 8.9694980723073634e+00 1.0025261655850493e+01 1.5413161538361619e+01 0 0 0
89 1 0.0000000000000000e+00 2.1606912220014102e+01 2.3960027714390928e+00 1.3159274331923619e+01 0 0 0
90 1 0.0000000000000000e+00 2.2872442129441058e+01 1.4987866383948194e+01 1.3159274331923585e+01 0 0 0
91 1 0.0000000000000000e+00 8.9533105142784777e+00 2.3960027714390928e+00 1.3159274331923617e+01 0 0 0
92 1 0.0000000000000000e+00 1.0218840423705430e+01 1.4987866383948194e+01 1.3159274331923585e+01 0 0 0
93 1 0.0000000000000000e+00 2.1600010708695045e+01 6.1838063728848240e+00 1.4127843243123968e+01 0 0 0
94 1 0.0000000000000000e+00 2.2865540618121990e+01 1.8775669985393954e+01 1.4127843243123968e+01 0 0 0
95 1 0.0000000000000000e+00 8.9464090029594203e+00 6.1838063728848258e+00 1.4127843243123968e+01 0 0 0
96 1 0.0000000000000000e+00 1.0211938912386358e+01 1.8775669985393954e+01 1.4127843243123968e+01 0 0 0
97 1 0.0000000000000000e+00 2.5779879013204607e+00 2.3317803318365765e+01 1.3124516489261087e+01 0 0 0
98 1 0.0000000000000000e+00 1.3124579918935235e+00 1.0725939705856641e+01 1.3124516489261058e+01 0 0 0
99 1 0.0000000000000000e+00 1.5231589607056087e+01 2.3317803318365765e+01 1.3124516489261087e+01 0 0 0
100 1 0.0000000000000000e+00 1.3966059697629149e+01 1.0725939705856641e+01 1.3124516489261058e+01 0 0 0
101 1 0.0000000000000000e+00 2.5386516390766328e+01 2.0135679836016589e+00 1.4134770893524468e+01 0 0 0
102 1 0.0000000000000000e+00 2.6652046300193259e+01 1.4605431596110760e+01 1.4134770893524436e+01 0 0 0
103 1 0.0000000000000000e+00 1.2732914685030696e+01 2.0135679836016585e+00 1.4134770893524468e+01 0 0 0
104 1 0.0000000000000000e+00 1.3998444594457636e+01 1.4605431596110760e+01 1.4134770893524434e+01 0 0 0
105 1 0.0000000000000000e+00 6.4322120573211654e+00 2.3026795111862398e+01 1.4177020667592227e+01 0 0 0
106 1 0.0000000000000000e+00 5.1666821478942264e+00 1.0434931499353272e+01 1.4177020667592201e+01 0 0 0
107 1 0.0000000000000000e+00 1.9085813763056791e+01 2.3026795111862398e+01 1.4177020667592233e+01 0 0 0
108 1 0.0000000000000000e+00 1.7820283853629849e+01 1.0434931499353272e+01 1.4177020667592201e+01 0 0 0
109 1 0.0000000000000000e+00 1.9992724110290541e+00 3.7285279048358948e+00 1.5278011344582596e+01 0 0 0
110 1 0.0000000000000000e+00 3.2648023204559924e+00 1.6320391517345008e+01 1.5278011344582564e+01 0 0 0
111 1 0.0000000000000000e+00 1.4652874116764682e+01 3.7285279048358970e+00 1.5278011344582596e+01 0 0 0
112 1 0.0000000000000000e+00 1.5918404026191620e+01 1.6320391517345008e+01 1.5278011344582564e+01 0 0 0
113 1 0.0000000000000000e+00 8.3301738787269688e+00 2.4755829366437748e+01 1.5386194829784419e+01 0 0 0
114 1 0.0000000000000000e+00 7.0646439693000307e+00 1.2163965753928636e+01 1.5386194829784376e+01 0 0 0
115 1 0.0000000000000000e+00 2.0983775584462595e+01 2.4755829366437748e+01 1.5386194829784424e+01 0 0 0
116 1 0.0000000000000000e+00 1.9718245675035664e+01 1.2163965753928636e+01 1.5386194829784376e+01 0 0 0
117 1 0.0000000000000000e+00 5.8312856970073046e+00 3.3674598759017265e+00 1.6540782587314499e+01 0 0 0
118 1 0.0000000000000000e+00 7.0968156064342462e+00 1.5959323488410831e+01 1.6540782587314471e+01 0 0 0
119 1 0.0000000000000000e+00 1.8484887402742928e+01 3.3674598759017229e+00 1.6540782587314499e+01 0 0 0
120 1 0.0000000000000000e+00 1.9750417312169873e+01 1.5959323488410828e+01 1.6540782587314467e+01 0 0 0
121 1 0.0000000000000000e+00 2.4777862628163977e+01 2.0528205121406295e+01 1.5413165296375483e+01 0 0 0
122 1 0.0000000000000000e+00 2.3512332718737042e+01 7.9363415088971774e+00 1.5413165296375478e+01 0 0 0
123 1 0.0000000000000000e+00 1.2124260922428352e+01 2.0528205121406298e+01 1.5413165296375489e+01 0 0 0
124 1 0.0000000000000000e+00 1.0858731013001416e+01 7.9363415088971774e+00 1.5413165296375473e+01 0 0 0
125 1 0.0000000000000000e+00 2.3443656299452726e+01 2.4647665870951035e-01 1.3124504154011806e+01 0 0 0
126 1 0.0000000000000000e+00 2.4709186208879675e+01 1.2838340271218595e+01 1.3124504154011778e+01 0 0 0
127 1 0.0000000000000000e+00 1.0790054593717105e+01 2.4647665870950897e-01 1.3124504154011806e+01 0 0 0
128 1 0.0000000000000000e+00 1.2055584503144051e+01 1.2838340271218597e+01 1.3124504154011778e+01 0 0 0
129 1 0.0000000000000000e+00 2.3539655116649303e+01 4.1111697804011333e+00 1.4176989389773544e+01 0 0 0
130 1 0.0000000000000000e+00 2.4805185026076245e+01 1.6703033392910257e+01 1.4176989389773517e+01 0 0 0
131 1 0.0000000000000000e+00 1.0886053410913675e+01 4.1111697804011360e+00 1.4176989389773544e+01 0 0 0
132 1 0.0000000000000000e+00 1.2151583320340618e+01 1.6703033392910257e+01 1.4176989389773512e+01 0 0 0
133 1 0.0000000000000000e+00 4.5327622620462353e+00 2.1274995154070208e+01 1.3159276862402519e+01 0 0 0
134 1 0.0000000000000000e+00 3.2672323526192963e+00 8.6831315415610728e+00 1.3159276862402503e+01 0 0 0
135 1 0.0000000000000000e+00 1.7186363967781858e+01 2.1274995154070208e+01 1.3159276862402519e+01 0 0 0
136 1 0.0000000000000000e+00 1.5920834058354917e+01 8.6831315415610764e+00 1.3159276862402503e+01 0 0 0
137 1 0.0000000000000000e+00 4.5302689977615440e+00 2.5074507723418506e+01 1.4134779454965342e+01 0 0 0
138 1 0.0000000000000000e+00 3.2647390883346050e+00 1.2482644110909394e+01 1.4134779454965310e+01 0 0 0
139 1 0.0000000000000000e+00 1.7183870703497167e+01 2.5074507723418506e+01 1.4134779454965342e+01 0 0 0
140 1 0.0000000000000000e+00 1.5918340794070227e+01 1.2482644110909391e+01 1.4134779454965310e+01 0 0 0
141 1 0.0000000000000000e+00 8.3001793442549179e+00 2.0889419426067811e+01 1.4127823332971319e+01 0 0 0
142 1 0.0000000000000000e+00 7.0346494348279824e+00 8.2975558135586862e+00 1.4127823332971309e+01 0 0 0
143 1 0.0000000000000000e+00 2.0953781049990550e+01 2.0889419426067814e+01 1.4127823332971319e+01 0 0 0
144 1 0.0000000000000000e+00 1.9688251140563604e+01 8.2975558135586862e+00 1.4127823332971309e+01 0 0 0
145 1 0.0000000000000000e+00 2.3534124032275088e+01 2.2276916329776788e+00 2.0205822991694589e+01 0 0 0
146 1 0.0000000000000000e+00 2.4799653941702037e+01 1.4819555245486777e+01 2.0205822991694543e+01 0 0 0
147 1 0.0000000000000000e+00 1.0880522326539465e+01 2.2276916329776801e+00 2.0205822991694582e+01 0 0 0
148 1 0.0000000000000000e+00 1.2146052235966410e+01 1.4819555245486782e+01 2.0205822991694543e+01 0 0 0
149 1 0.0000000000000000e+00 4.5578647133200141e+00 2.3209858709026623e+01 2.0205852927889019e+01 0 0 0
150 1 0.0000000000000000e+00 3.2923348038930804e+00 1.0617995096517511e+01 2.0205852927888984e+01 0 0 0
151 1 0.0000000000000000e+00 1.7211466419055640e+01 2.3209858709026616e+01 2.0205852927889016e+01 0 0 0
152 1 0.0000000000000000e+00 1.5945936509628707e+01 1.0617995096517509e+01 2.0205852927888984e+01 0 0 0
153 1 0.0000000000000000e+00 3.2956349003740595e+00 2.9935074398254953e+00 1.7675844527235743e+01 0 0 0
154 1 0.0000000000000000e+00 4.5611648098010029e+00 1.5585371052334599e+01 1.7675844527235700e+01 0 0 0
155 1 0.0000000000000000e+00 1.5949236606109688e+01 2.9935074398254922e+00 1.7675844527235739e+01 0 0 0
156 1 0.0000000000000000e+00 1.7214766515536628e+01 1.5585371052334599e+01 1.7675844527235700e+01 0 0 0
157 1 0.0000000000000000e+00 2.2269289354834111e+01 2.0157897012968530e+01 1.6495058344653863e+01 0 0 0
158 1 0.0000000000000000e+00 2.1003759445407173e+01 7.5660334004594176e+00 1.6495058344653856e+01 0 0 0
159 1 0.0000000000000000e+00 9.6156876490984882e+00 2.0157897012968530e+01 1.6495058344653863e+01 0 0 0
160 1 0.0000000000000000e+00 8.3501577396715501e+00 7.5660334004594176e+00 1.6495058344653856e+01 0 0 0
161 1 0.0000000000000000e+00 2.2267011128791314e+01 2.3994942625484072e+01 1.7739444037855094e+01 0 0 0
162 1 0.0000000000000000e+00 2.1001481219364379e+01 1.1403079012974965e+01 1.7739444037855048e+01 0 0 0
163 1 0.0000000000000000e+00 9.6134094230556890e+00 2.3994942625484072e+01 1.7739444037855090e+01 0 0 0
164 1 0.0000000000000000e+00 8.3478795136287580e+00 1.1403079012974967e+01 1.7739444037855048e+01 0 0 0
165 1 0.0000000000000000e+00 1.9741450515303029e+01 2.6102857218759135e+00 1.8966884869906380e+01 0 0 0
166 1 0.0000000000000000e+00 2.1006980424729971e+01 1.5202149334385018e+01 1.8966884869906345e+01 0 0 0
167 1 0.0000000000000000e+00 7.0878488095674044e+00 2.6102857218759152e+00 1.8966884869906380e+01 0 0 0
168 1 0.0000000000000000e+00 8.3533787189943478e+00 1.5202149334385012e+01 1.8966884869906337e+01 0 0 0
169 1 0.0000000000000000e+00 2.6086340082274070e+01 1.9771873797205266e+01 1.7739490348423619e+01 0 0 0
170 1 0.0000000000000000e+00 2.4820810172847132e+01 7.1800101846961617e+00 1.7739490348423615e+01 0 0 0
171 1 0.0000000000000000e+00 1.3432738376538445e+01 1.9771873797205266e+01 1.7739490348423619e+01 0 0 0
172 1 0.0000000000000000e+00 1.2167208467111509e+01 7.1800101846961599e+00 1.7739490348423615e+01 0 0 0
173 1 0.0000000000000000e+00 2.6068740910605356e+01 2.3595074971448312e+01 1.8974263658859389e+01 0 0 0
174 1 0.0000000000000000e+00 2.4803211001178415e+01 1.1003211358939211e+01 1.8974263658859350e+01 0 0 0
175 1 0.0000000000000000e+00 1.3415139204869726e+01 2.3595074971448319e+01 1.8974263658859389e+01 0 0 0
176 1 0.0000000000000000e+00 1.2149609295442792e+01 1.1003211358939211e+01 1.8974263658859357e+01 0 0 0
177 1 0.0000000000000000e+00 4.5591894275032967e+00 1.9397397996628449e+01 1.8966887277953944e+01 0 0 0
178 1 0.0000000000000000e+00 3.2936595180763626e+00 6.8055343841193459e+00 1.8966887277953944e+01 0 0 0
179 1 0.0000000000000000e+00 1.7212791133238923e+01 1.9397397996628449e+01 1.8966887277953944e+01 0 0 0
180 1 0.0000000000000000e+00 1.5947261223811989e+01 6.8055343841193459e+00 1.8966887277953944e+01 0 0 0
181 1 0.0000000000000000e+00 1.4183882460036390e+00 5.0772727760833209e+00 1.7723909290944221e+01 0 0 0
182 1 0.0000000000000000e+00 2.6839181554305829e+00 1.7669136388592428e+01 1.7723909290944199e+01 0 0 0
183 1 0.0000000000000000e+00 1.4071989951739269e+01 5.0772727760833236e+00 1.7723909290944221e+01 0 0 0
184 1 0.0000000000000000e+00 1.5337519861166204e+01 1.7669136388592428e+01 1.7723909290944199e+01 0 0 0
185 1 0.0000000000000000e+00 5.1809497073938848e+00 9.1699342381877724e-01 1.7723865396417146e+01 0 0 0
186 1 0.0000000000000000e+00 6.4464796168208300e+00 1.3508857036327877e+01 1.7723865396417100e+01 0 0 0
187 1 0.0000000000000000e+00 1.7834551413129514e+01 9.1699342381877869e-01 1.7723865396417146e+01 0 0 0
188 1 0.0000000000000000e+00 1.9100081322556463e+01 1.3508857036327878e+01 1.7723865396417100e+01 0 0 0
189 1 0.0000000000000000e+00 5.1859583945017080e+00 4.7035694019304763e+00 1.8957849039794166e+01 0 0 0
190 1 0.0000000000000000e+00 6.4514883039286515e+00 1.7295433014439578e+01 1.8957849039794137e+01 0 0 0
191 1 0.0000000000000000e+00 1.7839560100237335e+01 4.7035694019304790e+00 1.8957849039794166e+01 0 0 0
192 1 0.0000000000000000e+00 1.9105090009664274e+01 1.7295433014439578e+01 1.8957849039794144e+01 0 0 0
193 1 0.0000000000000000e+00 2.4176012668689442e+01 2.1882795005809207e+01 1.7766845879747670e+01 0 0 0
194 1 0.0000000000000000e+00 2.2910482759262504e+01 9.2909313933001005e+00 1.7766845879747649e+01 0 0 0
195 1 0.0000000000000000e+00 1.1522410962953815e+01 2.1882795005809207e+01 1.7766845879747670e+01 0 0 0
196 1 0.0000000000000000e+00 1.0256881053526882e+01 9.2909313933001005e+00 1.7766845879747649e+01 0 0 0
197 1 0.0000000000000000e+00 2.1638706052614097e+01 5.1189561486917501e-01 1.8967318720694436e+01 0 0 0
198 1 0.0000000000000000e+00 2.2904235962041053e+01 1.3103759227378273e+01 1.8967318720694401e+01 0 0 0
199 1 0.0000000000000000e+00 8.9851043468784777e+00 5.1189561486917556e-01 1.8967318720694436e+01 0 0 0
200 1 0.0000000000000000e+00 1.0250634256305423e+01 1.3103759227378276e+01 1.8967318720694394e+01 0 0 0
201 1 0.0000000000000000e+00 2.2900895459655999e+01 5.4759450688472313e+00 1.6504105066049181e+01 0 0 0
202 1 0.0000000000000000e+00 2.4166425369082923e+01 1.8067808681356340e+01 1.6504105066049167e+01 0 0 0
203 1 0.0000000000000000e+00 1.0247293753920367e+01 5.4759450688472304e+00 1.6504105066049181e+01 0 0 0
204 1 0.0000000000000000e+00 1.1512823663347309e+01 1.8067808681356340e+01 1.6504105066049167e+01 0 0 0
205 1 0.0000000000000000e+00 2.6613430507741831e+00 2.1495277847212801e+01 1.8967328749386422e+01 0 0 0
206 1 0.0000000000000000e+00 1.3958131413472488e+00 8.9034142347036926e+00 1.8967328749386400e+01 0 0 0
207 1 0.0000000000000000e+00 1.5314944756509810e+01 2.1495277847212801e+01 1.8967328749386422e+01 0 0 0
208 1 0.0000000000000000e+00 1.4049414847082874e+01 8.9034142347036926e+00 1.8967328749386400e+01 0 0 0
209 1 0.0000000000000000e+00 2.7967702001897319e+01 2.5312964386052045e+01 2.0215618613871730e+01 0 0 0
210 1 0.0000000000000000e+00 2.6702172092470388e+01 1.2721100773542938e+01 2.0215618613871687e+01 0 0 0
211 1 0.0000000000000000e+00 1.5314100296161701e+01 2.5312964386052045e+01 2.0215618613871730e+01 0 0 0
212 1 0.0000000000000000e+00 1.4048570386734763e+01 1.2721100773542938e+01 2.0215618613871687e+01 0 0 0
213 1 0.0000000000000000e+00 7.7261122932111661e+00 2.2254809352098423e+01 1.6504125547082996e+01 0 0 0
214 1 0.0000000000000000e+00 6.4605823837842316e+00 9.6629457395893130e+00 1.6504125547082964e+01 0 0 0
215 1 0.0000000000000000e+00 2.0379713998946791e+01 2.2254809352098423e+01 1.6504125547083000e+01 0 0 0
216 1 0.0000000000000000e+00 1.9114184089519856e+01 9.6629457395893130e+00 1.6504125547082968e+01 0 0 0
217 1 0.0000000000000000e+00 2.4173474408092513e+01 4.7057083026017299e+00 1.8958863438465730e+01 0 0 0
218 1 0.0000000000000000e+00 2.5439004317519458e+01 1.7297571915110833e+01 1.8958863438465709e+01 0 0 0
219 1 0.0000000000000000e+00 1.1519872702356889e+01 4.7057083026017299e+00 1.8958863438465730e+01 0 0 0
220 1 0.0000000000000000e+00 1.2785402611783827e+01 1.7297571915110833e+01 1.8958863438465709e+01 0 0 0
221 1 0.0000000000000000e+00 2.6619830047092070e+00 5.1999185614823684e-01 1.8955253286965934e+01 0 0 0
222 1 0.0000000000000000e+00 3.9275129141361500e+00 1.3111855468657334e+01 1.8955253286965892e+01 0 0 0
223 1 0.0000000000000000e+00 1.5315584710444833e+01 5.1999185614823851e-01 1.8955253286965934e+01 0 0 0
224 1 0.0000000000000000e+00 1.6581114619871784e+01 1.3111855468657334e+01 1.8955253286965892e+01 0 0 0
225 1 0.0000000000000000e+00 2.6603082238062306e+00 4.3151724591985161e+00 2.0192150389759792e+01 0 0 0
226 1 0.0000000000000000e+00 3.9258381332331682e+00 1.6907036071707616e+01 2.0192150389759764e+01 0 0 0
227 1 0.0000000000000000e+00 1.5313909929541852e+01 4.3151724591985143e+00 2.0192150389759792e+01 0 0 0
228 1 0.0000000000000000e+00 1.6579439838968792e+01 1.6907036071707616e+01 2.0192150389759764e+01 0 0 0
229 1 0.0000000000000000e+00 2.1634802908133416e+01 2.1493739758776904e+01 1.8961370641624541e+01 0 0 0
230 1 0.0000000000000000e+00 2.0369272998706485e+01 8.9018761462677993e+00 1.8961370641624523e+01 0 0 0
231 1 0.0000000000000000e+00 8.9812012023977932e+00 2.1493739758776904e+01 1.8961370641624541e+01 0 0 0
232 1 0.0000000000000000e+00 7.7156712929708560e+00 8.9018761462677993e+00 1.8961370641624523e+01 0 0 0
233 1 0.0000000000000000e+00 2.0389804507623158e+01 1.2815723443958624e+00 1.6518437789457785e+01 0 0 0
234 1 0.0000000000000000e+00 2.1655334417050103e+01 1.3873435956904963e+01 1.6518437789457742e+01 0 0 0
235 1 0.0000000000000000e+00 7.7362028018875328e+00 1.2815723443958622e+00 1.6518437789457785e+01 0 0 0
236 1 0.0000000000000000e+00 9.0017327113144763e+00 1.3873435956904963e+01 1.6518437789457746e+01 0 0 0
237 1 0.0000000000000000e+00 2.0364131222877781e+01 5.1039044840026353e+00 1.7725195456382998e+01 0 0 0
238 1 0.0000000000000000e+00 2.1629661132304719e+01 1.7695768096511738e+01 1.7725195456382970e+01 0 0 0
239 1 0.0000000000000000e+00 7.7105295171421542e+00 5.1039044840026344e+00 1.7725195456382991e+01 0 0 0
240 1 0.0000000000000000e+00 8.9760594265690923e+00 1.7695768096511738e+01 1.7725195456382970e+01 0 0 0
241 1 0.0000000000000000e+00 2.6702332803611956e+01 2.2268053276291678e+01 1.6506354483588972e+01 0 0 0
242 1 0.0000000000000000e+00 2.5436802894185021e+01 9.6761896637825657e+00 1.6506354483588950e+01 0 0 0
243 1 0.0000000000000000e+00 1.4048731097876328e+01 2.2268053276291678e+01 1.6506354483588979e+01 0 0 0
244 1 0.0000000000000000e+00 1.2783201188449391e+01 9.6761896637825657e+00 1.6506354483588950e+01 0 0 0
245 1 0.0000000000000000e+00 2.4180286951476031e+01 9.0041984956133758e-01 1.7758852713254800e+01 0 0 0
246 1 0.0000000000000000e+00 2.5445816860902973e+01 1.3492283462070436e+01 1.7758852713254754e+01 0 0 0
247 1 0.0000000000000000e+00 1.1526685245740403e+01 9.0041984956133747e-01 1.7758852713254800e+01 0 0 0
248 1 0.0000000000000000e+00 1.2792215155167352e+01 1.3492283462070441e+01 1.7758852713254761e+01 0 0 0
249 1 0.0000000000000000e+00 5.2119324580964772e+00 2.1869474472517886e+01 1.7733319670326619e+01 0 0 0
250 1 0.0000000000000000e+00 3.9464025486695427e+00 9.2776108600087728e+00 1.7733319670326591e+01 0 0 0
251 1 0.0000000000000000e+00 1.7865534163832105e+01 2.1869474472517886e+01 1.7733319670326622e+01 0 0 0
252 1 0.0000000000000000e+00 1.6600004254405167e+01 9.2776108600087728e+00 1.7733319670326591e+01 0 0 0
253 1 0.0000000000000000e+00 7.7148640567610016e-01 2.6103308709541682e+00 1.8955252489316972e+01 0 0 0
254 1 0.0000000000000000e+00 2.0370163151030467e+00 1.5202194483463268e+01 1.8955252489316933e+01 0 0 0
255 1 0.0000000000000000e+00 1.3425088111411725e+01 2.6103308709541677e+00 1.8955252489316972e+01 0 0 0
256 1 0.0000000000000000e+00 1.4690618020838670e+01 1.5202194483463266e+01 1.8955252489316933e+01 0 0 0
257 1 0.0000000000000000e+00 7.0870897552818093e+00 2.3598240654455523e+01 1.8958885378048347e+01 0 0 0
258 1 0.0000000000000000e+00 5.8215598458548738e+00 1.1006377041946417e+01 1.8958885378048308e+01 0 0 0
259 1 0.0000000000000000e+00 1.9740691461017434e+01 2.3598240654455523e+01 1.8958885378048347e+01 0 0 0
260 1 0.0000000000000000e+00 1.8475161551590492e+01 1.1006377041946420e+01 1.8958885378048308e+01 0 0 0
261 1 0.0000000000000000e+00 4.5469381756785436e+00 2.2291113268010898e+00 2.0192125327301650e+01 0 0 0
262 1 0.0000000000000000e+00 5.8124680851054862e+00 1.4820974939310190e+01 2.0192125327301618e+01 0 0 0
263 1 0.0000000000000000e+00 1.7200539881414173e+01 2.2291113268010880e+00 2.0192125327301657e+01 0 0 0
264 1 0.0000000000000000e+00 1.8466069790841107e+01 1.4820974939310190e+01 2.0192125327301611e+01 0 0 0
265 1 0.0000000000000000e+00 2.3534770755699117e+01 1.9392925678089565e+01 1.8961359707996035e+01 0 0 0
266 1 0.0000000000000000e+00 2.2269240846272176e+01 6.8010620655804619e+00 1.8961359707996035e+01 0 0 0
267 1 0.0000000000000000e+00 1.0881169049963486e+01 1.9392925678089565e+01 1.8961359707996035e+01 0 0 0
268 1 0.0000000000000000e+00 9.6156391405365476e+00 6.8010620655804637e+00 1.8961359707996035e+01 0 0 0
269 1 0.0000000000000000e+00 2.4811936654805194e+01 2.4358288371725468e+01 1.6506350346721266e+01 0 0 0
270 1 0.0000000000000000e+00 2.3546406745378260e+01 1.1766424759216354e+01 1.6506350346721224e+01 0 0 0
271 1 0.0000000000000000e+00 1.2158334949069573e+01 2.4358288371725468e+01 1.6506350346721266e+01 0 0 0
272 1 0.0000000000000000e+00 1.0892805039642635e+01 1.1766424759216356e+01 1.6506350346721224e+01 0 0 0
273 1 0.0000000000000000e+00 2.2266075863668988e+01 3.0125831662684184e+00 1.7733244595628662e+01 0 0 0
274 1 0.0000000000000000e+00 2.3531605773095936e+01 1.5604446778777522e+01 1.7733244595628626e+01 0 0 0
275 1 0.0000000000000000e+00 9.6124741579333648e+00 3.0125831662684193e+00 1.7733244595628666e+01 0 0 0
276 1 0.0000000000000000e+00 1.0878004067360308e+01 1.5604446778777522e+01 1.7733244595628626e+01 0 0 0
277 1 0.0000000000000000e+00 3.3021734748777325e+00 2.0175468336527409e+01 1.6518457985705457e+01 0 0 0
278 1 0.0000000000000000e+00 2.0366435654507957e+00 7.5836047240182971e+00 1.6518457985705449e+01 0 0 0
279 1 0.0000000000000000e+00 1.5955775180613360e+01 2.0175468336527409e+01 1.6518457985705457e+01 0 0 0
280 1 0.0000000000000000e+00 1.4690245271186418e+01 7.5836047240182927e+00 1.6518457985705449e+01 0 0 0
281 1 0.0000000000000000e+00 3.3020944271858736e+00 2.3985570343110581e+01 1.7758861719641473e+01 0 0 0
282 1 0.0000000000000000e+00 2.0365645177589404e+00 1.1393706730601476e+01 1.7758861719641438e+01 0 0 0
283 1 0.0000000000000000e+00 1.5955696132921496e+01 2.3985570343110584e+01 1.7758861719641473e+01 0 0 0
284 1 0.0000000000000000e+00 1.4690166223494565e+01 1.1393706730601476e+01 1.7758861719641434e+01 0 0 0
285 1 0.0000000000000000e+00 7.1022759193015714e+00 1.9767629130944790e+01 1.7725250239992345e+01 0 0 0