LAMMPS (13 Jan 2016)
include /users/knc6/inelast.mod
# Compute elastic constant tensor for a crystal
#
# Written by Aidan Thompson (Sandia, athomps@sandia.gov)
#
#  This script uses the following three include files.
#
#   init.mod      (must be modified for different crystal structures)
# 	       	  Define units, deformation parameters and initial
#		  configuration of the atoms and simulation cell.
#
#
#   potential.mod    (must be modified for different pair styles)
# 		     Define pair style and other attributes
#		     not stored in restart file
#
#
#   displace.mod    (displace.mod should not need to be modified)
# 		    Perform positive and negative box displacements
# 		    in direction ${dir} and size ${up}.
# 		    It uses the resultant changes
#		    in stress to compute one
# 		    row of the elastic stiffness tensor
#
#		    Inputs variables:
#		    	   dir = the Voigt deformation component
#		    		    (1,2,3,4,5,6)
#		    Global constants:
#       	    	   up = the deformation magnitude (strain units)
#       		   cfac = conversion from LAMMPS pressure units to
#               	   output units for elastic constants
#
#
#  To run this on a different system, it should only be necessary to
#  modify the files init.mod and potential.mod. In order to calculate
#  the elastic constants correctly, care must be taken to specify
#  the correct units in init.mod (units, cfac and cunits). It is also
#  important to verify that the minimization of energy w.r.t atom
#  positions in the deformed cell is fully converged.
#  One indication of this is that the elastic constants are insensitive
#  to the choice of the variable ${up} in init.mod. Another is to check
#  the final max and two-norm forces reported in the log file. If you know
#  that minimization is not required, you can set maxiter = 0.0 in
#  init.mod.
#
#  There are two alternate versions of displace.mod provided.
#  They are displace_restart.mod and displace_reverse.mod.
#  The former resets the box using a restart file while
#  the latter reverses the deformation. Copy whichever
#  one you like best to displace.mod.
#

include init.mod
variable dump_file string "None"
variable up  equal 1.0e-6
variable cfac  equal 1.0e-4
variable cunits  string GPa
variable etol  equal 0
variable ftol  equal 1.0e-10
variable maxiter equal 1000
variable maxeval equal 10000
variable dmax equal 1.0e-2
variable data_file string "data"
units metal
atom_style charge
boundary p p p
atom_modify sort 0 0.0

read_data data
  triclinic box = (0 0 0) to (25.6144 25.4861 47.6237) with tilt (2.56144 0 0)
  1 by 1 by 1 MPI processor grid
  reading atoms ...
  864 atoms

### interactions
mass 1 26.98154
include potential.mod
pair_style eam/alloy
pair_coeff * * /users/knc6/Software/jarvis/jarvis/lammps/examples/Al03.eam.alloy  Al
neighbor 1.0 nsq
neigh_modify once no every 1 delay 0 check yes
min_style  cg
min_modify           dmax ${dmax} line quadratic
min_modify           dmax 0.01 line quadratic
thermo          1
thermo_style custom step temp press cpu pxx pyy pzz pxy pxz pyz ke pe etotal vol lx ly lz atoms
thermo_modify norm no
#fix 3 all nph aniso 0.0 0.0 1.0
#fix langevin all langevin 0.0 0.0 1.0 12233

#fix 3 all box/relax tri 0.0 vmax 0.001
fix            3 all box/relax aniso 0.0 vmax 0.001
#fix 3 all box/relax  aniso 0.0
#dump            2a all cfg 100 *.cfg mass type xs ys zs  vx vy vz fx fy fz
#dump_modify     2a element  Mo S

#fix 1a all qeq/comb 1 0.0001 file fq.out
#fix             2 all qeq/reax 1 0.0 10.0 1e-6 /scratch/lfs/kamal/JARVIS/All2/ReaxFF/param.qeq
minimize ${etol} ${ftol} ${maxiter} ${maxeval}
minimize 0 ${ftol} ${maxiter} ${maxeval}
minimize 0 1e-10 ${maxiter} ${maxeval}
minimize 0 1e-10 1000 ${maxeval}
minimize 0 1e-10 1000 10000
Neighbor list info ...
  1 neighbor list requests
  update every 1 steps, delay 0 steps, check yes
  max neighbors/atom: 2000, page size: 100000
  master list distance cutoff = 7.72488
  ghost atom cutoff = 7.72488
Memory usage per processor = 3.37369 Mbytes
Step Temp Press CPU Pxx Pyy Pzz Pxy Pxz Pyz KinEng PotEng TotEng Volume Lx Ly Lz Atoms 
       0            0   -11779.324            0   -12615.685   -12526.125   -10196.161   -445.55707   -105.63072   -95.546583            0   -2828.4201   -2828.4201    31089.298    25.614449    25.486055    47.623716      864 
       1            0   -10849.293  0.003068924   -11652.657   -11562.365   -9332.8582   -458.32123    -102.2159   -92.375192            0   -2829.0403   -2829.0403    31002.294    25.588834     25.46075    47.585226      864 
       2            0   -9908.9276 0.0061368942   -10677.744   -10586.939   -8462.0992   -471.12231   -98.923496   -89.301833            0   -2829.6071   -2829.6071    30915.703     25.56322    25.435461    47.547091      864 
       3            0   -8958.5242 0.0092089176   -9691.1138   -9600.0524   -7584.4065   -483.95774   -95.780209   -86.348029            0   -2830.1201   -2830.1201    30829.561    25.537605    25.410192    47.509364      864 
       4            0   -7998.5386  0.012290001   -8693.0616    -8602.042   -6700.5124   -496.83733   -92.816466   -83.538908            0    -2830.579    -2830.579    30743.916    25.511991    25.384946    47.472115      864 
       5            0   -7029.8394  0.015373945   -7684.2363   -7593.6194   -5811.6624   -509.74958   -90.072541   -80.906417            0   -2830.9838   -2830.9838    30658.831    25.486377    25.359728    47.435438      864 
       6            0   -6053.5459  0.018447876   -6665.4753   -6575.6984    -4919.464   -522.69753   -87.600639    -78.49429            0   -2831.3342   -2831.3342    30574.394    25.460762    25.334544    47.399457      864 
       7            0   -5071.0416  0.021517992   -5637.7652    -5549.383   -4025.9767   -535.69543   -85.469215    -76.35505            0   -2831.6304   -2831.6304    30490.726    25.435148    25.309402    47.364354      864 
       8            0   -4084.6124  0.024595976   -4602.8089   -4516.5378   -3134.4906   -548.77213   -83.771953   -74.561313            0   -2831.8724   -2831.8724    30408.016    25.409533    25.284317    47.330399      864 
       9            0   -3098.1763  0.027683973   -3563.5791   -3480.3993   -2250.5505   -561.91171   -82.665764   -73.246148            0   -2832.0607   -2832.0607    30326.563    25.383919    25.259311    47.298027      864 
      10            0   -2118.5152  0.030771017   -2525.2058   -2446.5533   -1383.7863   -575.20513   -82.406044   -72.607201            0   -2832.1962   -2832.1962    30246.906    25.358304    25.234423    47.268016      864 
      11            0   -1159.6545  0.042477846    -1498.287   -1426.5916   -554.08484   -588.73859   -83.521717   -73.061114            0   -2832.2809   -2832.2809    30170.166     25.33269    25.209734    47.241985      864 
      12            0   -260.39884  0.045572042   -512.27235    -452.5926    183.66843   -602.86326   -87.397881   -75.705441            0   -2832.3192   -2832.3192    30099.462    25.307075    25.185471    47.224427      864 
      13            0    259.93372  0.051720858    142.41801    174.86215    462.52101   -617.02687    -99.56899   -84.978071            0   -2832.3281   -2832.3281    30060.143    25.285427    25.166444    47.238805      864 
      14            0    65.792203  0.054824829    79.160115    77.719574    40.496921   -625.18857   -115.97816   -97.768975            0   -2832.3353   -2832.3353    30077.411    25.278432    25.162501    47.286429      864 
      15            0   -342.72278  0.060981035   -361.67259   -361.38978   -305.10598   -619.07819   -114.47884   -96.633788            0   -2832.3395   -2832.3395    30109.518    25.289281    25.173095    47.296686      864 
      16            0   -289.80349   0.06409502   -461.95303   -442.58918    35.131745   -603.69458    -92.64054   -78.216349            0   -2832.4179   -2832.4179    30104.904    25.301028    25.182908    47.249062      864 
      17            0    260.83291  0.070253849    177.14727    189.41176    415.93969   -614.45848   -99.483445   -83.800801            0   -2832.4263   -2832.4263    30062.691    25.282639    25.165337    47.250097      864 
      18            0    231.36216   0.07337594    294.22988    289.37272    110.48387   -624.66239   -117.15213   -98.600083            0   -2832.4361   -2832.4361    30067.464    25.271103    25.155468     47.29772      864 
      19            0   -136.20265   0.08026886   -99.968964   -104.35316   -204.28582   -619.62592   -116.18982   -97.864195            0   -2832.4395   -2832.4395    30096.222    25.280618    25.164855    47.307486      864 
      20            0   -158.67715  0.083391905   -276.97856    -268.8265    69.773598   -606.89886   -96.761816   -81.250307            0   -2832.4566   -2832.4566    30096.054    25.293918    25.176827    47.259862      864 
      21            0    384.11046  0.089562893    334.69561    341.02908     476.6067   -615.86947   -101.26776   -85.038723            0   -2832.4644   -2832.4644    30054.376    25.277368    25.160604    47.255766      864 
      22            0    587.67508  0.092682838    714.54768    711.19298    337.28457   -629.14431   -120.80736   -101.85343            0   -2832.4832   -2832.4832    30041.746    25.258826    25.143153    47.303389      864 
      23            0   -283.39378  0.095803022   -145.16837   -153.27522   -551.73775   -622.55376   -127.11927   -107.43904            0   -2832.5031   -2832.5031    30111.255    25.275118    25.159754    47.351013      864 
      24            0   -752.44057  0.098929882   -808.65451   -817.11402   -631.55317   -600.86132   -103.91572   -86.883914            0   -2832.5531   -2832.5531    30146.868    25.300733    25.184985    47.311576      864 
      25            0   -2.6941725   0.10204792   -93.228342   -98.396302    183.54213   -603.18802   -93.648442   -77.721392            0     -2832.59     -2832.59     30087.14    25.288547    25.172538    47.263952      864 
      26            0    74.381649   0.10516405    132.18491    137.64592   -46.685881   -614.09223   -111.79605   -94.483383            0   -2832.5984   -2832.5984    30083.723    25.274752    25.158067    47.311576      864 
      27            0   -518.69471   0.11135983   -480.66276   -480.47481   -594.94656   -607.16015   -112.52614   -94.986443            0   -2832.6071   -2832.6071    30130.926    25.288217    25.171862    47.334624      864 
      28            0   -1226.8259   0.11448503    -1291.299    -1325.702   -1063.4767   -588.19891   -99.295013   -81.495228            0   -2832.6843   -2832.6843    30188.467    25.311065    25.197348    47.334284      864 
      29            0    -263.2353   0.11760902   -327.34436   -369.40014   -92.961402   -593.18806   -90.152516   -72.658142            0   -2832.7754   -2832.7754    30112.548    25.291637    25.178621     47.28666      864 
      30            0    106.09628   0.12381196    73.866222     47.10192    197.32071   -598.21822   -92.069858   -75.111313            0   -2832.7791   -2832.7791    30083.888    25.281637      25.1674     47.28141      864 
      31            0    20.069443   0.12693286    78.782895    127.34224   -145.91681   -602.69075    -106.2906   -92.078377            0    -2832.788    -2832.788    30093.083     25.27595    25.155419    47.329034      864 
      32            0   -419.93967   0.13005996   -471.73047   -515.81024   -272.27829   -590.89484   -91.341335   -73.653593            0   -2832.8081   -2832.8081    30126.097    25.293776    25.180905    47.299644      864 
      33            0    42.985486   0.13318396   -56.422099   -157.30053    342.67909   -590.92788   -79.178336   -59.551882            0   -2832.8312   -2832.8312    30088.629    25.288376     25.18031     47.25202      864 
      34            0    116.29378   0.13631296     115.5121    121.35969    112.00955   -596.04205   -94.152023   -78.812297            0   -2832.8532   -2832.8532    30085.711     25.27894    25.161907    47.299644      864 
      35            0   -253.29698   0.14251399    -255.5207   -245.67612   -258.69412   -592.67419   -96.459549   -81.186977            0   -2832.8566   -2832.8566    30115.205    25.286438    25.169006    47.318625      864 
      36            0   -799.71467   0.14563799   -752.09429   -733.40394   -913.64579   -589.75365   -105.06742   -89.503768            0   -2832.8815   -2832.8815     30160.87    25.293259    25.175035    47.366249      864 
      37            0    106.76245    0.1487689    244.06728    265.69822   -189.47816   -600.38382   -108.00456   -92.095694            0   -2832.9505   -2832.9505    30091.544    25.267803    25.149549    47.352923      864 
      38            0   -73.382259   0.15189695   -93.603297   -103.32128   -23.222197   -585.90467   -87.047329   -71.673993            0   -2832.9864   -2832.9864    30103.728    25.284406    25.168523    47.305299      864 
      39            0    798.11556   0.15502405    755.50566     757.6219    881.21912   -589.16746   -77.008655    -63.16954            0    -2833.006    -2833.006    30035.542    25.268995    25.152152    47.257676      864 
      40            0       1462.3   0.16122484    1380.8837    1398.8897    1607.1267   -588.86962   -65.736586    -53.85403            0   -2833.0174   -2833.0174    29984.427    25.259145    25.140956    47.216667      864 
      41            0    1416.9899   0.16434693    1127.9014    1204.3857    1918.6825   -561.88854   -31.639175   -26.700141            0   -2833.2207   -2833.2207    29990.907    25.277308     25.15369    47.169043      864 
      42            0    556.47182   0.16747093    290.57791    354.39631    1024.4412   -556.15425   -40.708937   -34.287143            0   -2833.2671   -2833.2671    30058.566    25.292537    25.169845    47.216667      864 
      43            0   -59.716207   0.17060399    -264.8061   -219.58325    305.24073   -555.23205   -52.423189   -43.873767            0    -2833.281    -2833.281    30108.146    25.299832    25.178696     47.26429      864 
      44            0      97.5056   0.17373395    77.583922    84.062568    130.87031   -569.87069   -73.319554   -60.353807            0     -2833.29     -2833.29    30098.463    25.281259    25.163735    47.311914      864 
      45            0   -201.98744   0.17995095   -193.61506   -197.07406   -215.27319   -569.50381   -78.543642   -64.528624            0   -2833.2923   -2833.2923    30122.759    25.284859    25.168183    47.334995      864 
      46            0   -209.01931   0.18309784   -42.806318   -86.377654   -497.87396   -580.55532   -96.225375   -78.000572            0   -2833.3084   -2833.3084      30126.3    25.271833    25.158804    47.382618      864 
      47            0    374.43272    0.1893189    482.11367    458.37433    182.81015   -579.84305   -85.138034   -69.108264            0   -2833.3177   -2833.3177    30079.346    25.265203    25.150445    47.336912      864 
      48            0    428.07858   0.19245291    380.35375    394.89766    508.98432   -567.81916   -65.706056   -53.942956            0    -2833.331    -2833.331    30073.167    25.277051    25.158803    47.289288      864 
      49            0   -99.981807   0.19867492   -166.16664    -151.9714    18.192626   -562.12431   -67.036881   -55.235442            0   -2833.3378   -2833.3378    30114.787    25.289095    25.170768    47.309685      864 
      50            0   -197.77809   0.20181203   -122.66539    -140.2197   -330.44917   -571.31401   -83.940654   -68.550563            0   -2833.3496   -2833.3496    30125.079    25.279259    25.163836    47.357309      864 
      51            0    261.68849   0.20804405    343.94743    328.28386    112.83419    -575.0162   -81.457905   -66.326709            0   -2833.3548   -2833.3548    30088.872    25.269575    25.154048    47.336929      864 
      52            0    609.36154   0.21118093    586.91981    594.27636    646.88846   -568.58643   -65.416838   -53.245205            0   -2833.3714   -2833.3714    30060.477    25.271409    25.153793    47.289305      864 
      53            0    -195.3965   0.21431398   -332.96576   -309.09686    55.873111   -552.50291   -56.176494   -46.110159            0   -2833.3995   -2833.3995    30123.096    25.297023    25.177684     47.29491      864 
      54            0   -259.94427    0.2174499   -267.87552   -260.39765   -251.55965   -556.62687   -68.766639   -56.473264            0   -2833.4853   -2833.4853     30132.68    25.287581    25.169754    47.342534      864 
      55            0     150.8847   0.22369385    160.53592    164.91724    127.20094    -560.9875   -67.806388   -55.343447            0   -2833.4895   -2833.4895    30100.358    25.277947    25.160465    47.327242      864 
      56            0    1085.2118   0.22993684    1129.0437    1071.4237    1055.1679   -568.73125   -61.018947   -45.510665            0    -2833.511    -2833.511    30028.217     25.25666    25.144541    47.283532      864 
      57            0     1026.824   0.23309088    1056.6886    720.23468    1303.5486   -555.55298   -36.080323   -7.6506124            0   -2833.7833   -2833.7833    30038.614    25.258821    25.170027    47.247967      864 
      58            0    114.74585   0.23624802    111.12926   -145.33649    378.44479   -544.51025   -41.485717   -17.357114            0   -2833.8121   -2833.8121    30110.672    25.279711    25.184173    47.295591      864 
      59            0   -211.39877   0.23939991   -224.04902   -277.37807    -132.7692   -538.05072   -49.940631   -36.301295            0   -2833.8185   -2833.8185     30138.24     25.28728    25.174336    47.343214      864 
      60            0    61.303844   0.24563289    62.630886    157.57968   -36.299032   -538.88396   -54.839257   -49.013589            0   -2833.8225   -2833.8225    30118.131    25.280935    25.155386     47.35915      864 
      61            0   -155.65928   0.24878788   -128.09933    121.33803   -460.21653    -535.1107    -63.55833   -65.793404            0   -2833.8511   -2833.8511    30138.332    25.283339    25.144579    47.406774      864 
      62            0      269.159   0.25193405    301.11604    384.28891    122.07204   -539.94263   -54.507567   -48.031665            0   -2833.8694   -2833.8694    30103.595    25.274323    25.149822     47.35915      864 
      63            0   -94.751914   0.25509286   -99.245246   -199.35167    14.341179   -536.39616   -45.357208   -29.565641            0   -2833.8841   -2833.8841    30130.724     25.28429    25.175309    47.335177      864 
      64            0    155.12329   0.25825191     106.4416   -124.61669    483.54496    -535.2292   -31.195218    -9.631194            0   -2833.9151   -2833.9151    30110.215     25.28283    25.184964    47.287553      864 
      65            0   -322.80103   0.26140499    -388.9519   -459.68758    -119.7636    -524.4249   -35.774778   -22.762772            0   -2833.9719   -2833.9719    30151.025    25.294144    25.182456    47.335177      864 
      66            0    172.78748   0.26455092    156.40887    224.32157    137.63199   -527.76828   -41.775079   -35.814994            0   -2834.0087   -2834.0087    30114.661    25.280405     25.15697    47.351704      864 
      67            0    6.3444652   0.26770782    50.872638    215.93993   -247.77917   -526.81744    -51.99764   -50.619465            0   -2834.0515   -2834.0515     30131.34    25.278852    25.147158    47.399328      864 
      68            0    -278.3224   0.27086782   -251.35701   -306.07527   -277.53492   -523.29739   -41.453998   -28.698374            0   -2834.1042   -2834.1042      30153.5    25.285696    25.172644    47.373338      864 
      69            0    325.42657   0.27402997    344.62881     195.1703    436.48059   -526.88812   -30.751036     -13.6453            0   -2834.1352   -2834.1352    30105.601    25.274279    25.169313    47.325714      864 
      70            0    712.53795   0.27718997    682.12403    444.60694    1010.8829   -524.30544   -14.659259    5.7110362            0   -2834.1828   -2834.1828    30075.569    25.270695    25.173102     47.27809      864 
      71            0    140.12101   0.28035998    -9.540178   -297.99345    727.89667   -505.52747    4.9868337    25.605133            0   -2834.3014   -2834.3014    30122.612    25.292022    25.198588    47.264261      864 
      72            0   -62.853645   0.28352594   -160.46747   -330.26508    302.17162    -504.9465   -7.8123606    7.6987307            0   -2834.3162   -2834.3162     30140.66    25.291941    25.188386    47.311885      864 
      73            0    197.25868   0.28668785    190.30972    174.34698    227.11933   -510.54825   -23.145898    -14.46001            0   -2834.3246   -2834.3246    30122.907    25.279484      25.1629    47.355233      864 
      74            0   -70.824886   0.29295087   -61.206922   -29.894607   -121.37313   -508.84901   -28.989376   -22.430081            0    -2834.327    -2834.327    30145.016    25.283491    25.162854    47.382568      864 
      75            0    44.906171   0.29610896    159.89051    288.67611    -313.8481   -514.39318    -43.84565   -41.358083            0   -2834.3473   -2834.3473    30139.541    25.272618    25.143835    47.430191      864 
      76            0   -224.88271   0.29927182   -215.38196   -224.39038   -234.87579   -505.18302   -26.145442   -17.645358            0   -2834.3759   -2834.3759    30158.727    25.286582    25.169322    47.386142      864 
      77            0    309.11076   0.30554605    295.56332    248.54714    383.22183   -507.71897   -17.146884   -7.3268683            0   -2834.3835   -2834.3835    30115.782    25.277881    25.163887    47.345178      864 
      78            0    672.15145   0.31181788    610.83093    521.73486    883.88856   -507.10081   -5.6192437    5.4256938            0   -2834.3879   -2834.3879    30086.438     25.27463     25.16417    47.304598      864 
      79            0    345.98351   0.31498599    131.08861   -35.139573     942.0015   -492.99907    17.592461    30.209942            0   -2834.4292   -2834.4292    30110.802    25.293784    25.189656    47.259191      864 
      80            0   -61.473791     0.318151   -221.84527   -334.66033    372.08422   -492.00036    5.0636474    15.995964            0   -2834.4427   -2834.4427    30144.541    25.297474    25.188819    47.306814      864 
      81            0    172.71519   0.32131004    142.69146    121.83427    253.61983   -500.93137   -13.452295   -5.5574783            0   -2834.4528   -2834.4528    30128.983    25.282114     25.16578    47.354438      864 
      82            0    -94.60697   0.32758689   -103.04538   -102.13284   -78.642692   -499.94794   -19.090662   -11.890877            0    -2834.455    -2834.455    30150.896     25.28565    25.167451    47.379107      864 
      83            0   -1.3061216   0.33074784    108.70456    178.99578    -291.6187   -507.57503     -35.7447   -30.751263            0   -2834.4604   -2834.4604    30146.585    25.274052    25.150119    47.426731      864 
      84            0    455.03508    0.3339169    535.74376    492.65036    336.71113   -504.55937   -19.378773   -9.5100861            0   -2834.5528   -2834.5528    30112.188    25.267524    25.153172    47.379107      864 
      85            0   -472.67241    0.3402009   -475.30369   -519.59978   -423.11377   -490.30472    -14.51652   -5.3697153            0   -2834.5748   -2834.5748    30185.496    25.292847    25.178361    47.399433      864 
      86            0   -1076.3226   0.34648085   -1182.5034   -1208.1628   -838.30172   -475.82019   -4.6857091    2.1894814            0   -2834.5853   -2834.5853    30233.803    25.313744     25.19739    47.400271      864 
      87            0   -916.97345   0.34963989   -1178.3228   -1150.8165   -421.78108   -460.63733    19.312235    20.735254            0   -2834.6659   -2834.6659    30221.789    25.323876    25.202623    47.352648      864 
      88            0   -11.206059     0.352808   -184.44734   -162.02176    312.85092   -473.90773    15.571542    17.854481            0    -2834.692    -2834.692    30150.613    25.298261    25.177737    47.335698      864 
      89            0    70.005623   0.35597801    59.301333    62.256079    88.459457   -485.68178   -4.2897869    1.2050714            0   -2834.6987   -2834.6987    30146.907    25.283064    25.164457    47.383321      864 
      90            0   -147.30107   0.36226797   -149.42699   -149.81626   -142.65996   -484.56935   -6.9371025   -1.0210537            0   -2834.6999   -2834.6999    30164.441    25.286649    25.168309    47.396902      864 
      91            0   -163.44385    0.3654449   -17.351125    -46.34408   -426.63635   -494.07073   -24.201153    -14.79802            0   -2834.7175   -2834.7175    30169.063    25.274589    25.158898    47.444526      864 
      92            0     376.2673   0.37173605    455.94396    443.42486    229.43309    -492.5009   -11.460391   -4.2472594            0   -2834.7259   -2834.7259    30125.269    25.269555    25.152412     47.39731      864 
      93            0    448.88902   0.37491202    382.91462    397.63907    566.11337   -481.91858     7.967086    11.569324            0   -2834.7362   -2834.7362    30117.588    25.280286    25.160606    47.349686      864 
      94            0   -103.65418   0.38118696   -196.26884   -180.88158    66.187889   -475.60172    7.1219446    10.653607            0   -2834.7437   -2834.7437    30161.212    25.293467    25.173599    47.369099      864 
      95            0   -201.55704   0.38435888   -158.52658   -166.22337   -279.92117   -484.09154   -10.142583   -3.4917597            0   -2834.7516   -2834.7516    30171.602    25.284053    25.166345    47.416722      864 
      96            0    140.17183   0.39065289    205.70177    196.34794    18.465795   -488.07984   -10.181207   -3.3489333            0   -2834.7546   -2834.7546    30144.817    25.275434    25.157944    47.406608      864 
      97            0    506.17044   0.39381886    476.47313    480.36861    561.66959   -482.85676    5.8671344     10.31218            0   -2834.7684   -2834.7684    30114.891    25.276205    25.157475    47.358984      864 
      98            0   -249.90277   0.39698482   -406.03128   -390.13422    46.457203   -466.80799     17.17372    19.573072            0   -2834.7929   -2834.7929    30173.882     25.30182    25.181734    47.358049      864 
      99            0   -699.94867   0.40016103   -842.77811   -797.98006   -459.08785   -446.72904    25.906134    25.608957            0   -2835.0431   -2835.0431    30221.332    25.310387    25.187467    47.405673      864 
     100            0     247.4796   0.40333605    186.02444    219.99159    336.42277   -457.61057    25.559132    26.076906            0   -2835.0868   -2835.0868    30148.192    25.284773    25.163048    47.384791      864 
     101            0    521.78505   0.40652084    669.83197    625.88881    269.63438   -470.96143    6.8369656    13.883022            0   -2835.1414   -2835.1414    30132.329    25.262005      25.1472    47.432415      864 
     102            0   -133.98734   0.40970397    62.325339   -14.227216   -450.06014   -467.51298   -1.1008938    8.5246057            0   -2835.1839   -2835.1839    30187.065    25.270851    25.158802    47.480039      864 
     103            0   -171.71139     0.412889   -161.92714   -170.96067   -182.24637   -450.12026    23.642936    26.687716            0   -2835.2315   -2835.2315    30189.113    25.287427    25.169262    47.432415      864 
     104            0    103.47163   0.41919804    113.95962    110.20728     86.24799   -452.04255    25.756559    28.338919            0   -2835.2334   -2835.2334    30167.227    25.281948    25.163369      47.4194      864 
     105            0    609.60673     0.425493    523.99295    579.52939    725.29785   -447.26613    41.778199    39.390584            0   -2835.2413   -2835.2413    30126.551    25.280129    25.156412    47.371968      864 
     106            0    375.30589   0.42867303    46.386423    218.60665     860.9246   -424.67835    70.912059    58.964818            0   -2835.2824   -2835.2824     30144.03     25.30537    25.171205    47.324344      864 
     107            0   -113.39973    0.4318459   -345.51766   -232.51129    237.82975   -427.85585    55.925651    48.725877            0   -2835.2932   -2835.2932    30184.219    25.306941    25.177863    47.371968      864 
     108            0    149.96364    0.4381609    140.35257    147.31189    162.22645   -446.26327    32.619448    33.856562            0   -2835.2999   -2835.2999    30166.337     25.28293    25.163336    47.416223      864 
     109            0   -38.799528   0.44447398    1.0657838   -20.626101   -96.838268   -448.62889     25.54486      29.1299            0   -2835.3011   -2835.3011    30182.129    25.282474    25.165378    47.438051      864 
     110            0    189.00951   0.44766903    372.51375     364.5072   -169.99241   -451.58376    15.092698    19.032962            0   -2835.4182   -2835.4182     30172.71    25.266422    25.148261    47.485675      864 
     111            0   -453.66203   0.45085597    -424.3014   -426.07729    -510.6074   -434.87321    31.040586    32.771986            0   -2835.4361   -2835.4361    30222.105    25.292036    25.172999    47.468549      864 
     112            0    -536.7808     0.454041   -665.97695   -659.93077   -284.43469   -422.07129    52.344759    51.360538            0   -2835.4504   -2835.4504    30226.771    25.307126    25.187143    47.420925      864 
     113            0    191.13471   0.46035695    65.058103    73.390912    434.95512    -427.3648     58.81152    57.175321            0   -2835.4637   -2835.4637    30168.872    25.292425     25.17236    47.385413      864 
     114            0    426.87849   0.46354389    477.22031    477.06515    326.35001   -439.67613    38.447989     39.48828            0   -2835.4801   -2835.4801    30154.159    25.273104    25.154037    47.433037      864 
     115            0   -198.32718   0.46986485    -117.0528   -121.60674   -356.32201    -436.7987    29.581756    31.672475            0   -2835.4902   -2835.4902    30205.088    25.282806    25.164063    47.475992      864 
     116            0   -1258.9444     0.476197   -1215.8812   -1233.2692   -1327.6828   -421.80442    30.278175    32.770302            0   -2835.5192   -2835.5192    30293.465    25.307257     25.18934    47.521165      864 
     117            0   -1138.7203   0.47939682   -1135.5498   -1179.5903   -1101.0207    -404.7726    52.118461    53.780808            0    -2835.737    -2835.737    30294.049    25.309012    25.193108    47.511679      864 
     118            0   -37.909614   0.48259997  -0.34964299   -32.882193   -80.497007   -415.00397    56.952012    57.721579            0   -2835.7698   -2835.7698    30205.877    25.284343    25.167622    47.467634      864 
     119            0    126.73479   0.48891687    126.83128    131.91869    121.45442   -413.00107      62.1276    60.225652            0   -2835.7707   -2835.7707    30192.379    25.284308    25.164327    47.452701      864 
     120            0    -33.34787   0.49524903   -235.82798   -67.552967    203.33734   -395.22904    82.178769    68.911636            0   -2835.7749   -2835.7749    30203.239    25.304745    25.170403    47.419981      864 
     121            0    63.003899   0.49844003   -115.32499   -53.649037    357.98573   -385.02969    96.585967    87.791134            0    -2835.966    -2835.966    30205.991    25.301603    25.176239    47.419198      864 
     122            0   -105.05224   0.50163293   -145.36405   -134.78235   -35.010307   -393.31233    78.222186    74.190949            0   -2835.9725   -2835.9725    30221.797    25.293251    25.172449    47.466821      864 
     123            0    73.738814   0.50797892    72.521963    73.078372    75.616106   -397.32649    74.952912    71.876348            0   -2835.9734   -2835.9734    30208.157    25.286434    25.166578    47.469262      864 
     124            0    73.745786   0.51432991    188.05337    152.75754   -119.57356   -405.38779     60.70797    61.213367            0   -2835.9753   -2835.9753    30210.335      25.2767    25.160083    47.503224      864 
     125            0   -276.00681     0.520679   -172.36443   -208.08507   -447.57094   -401.83528     59.28509    59.877874            0   -2835.9783   -2835.9783    30238.523    25.284466    25.167824    47.518325      864 
     126            0    -277.5072   0.52387595   -348.28059   -322.67505   -161.56594   -386.98131    82.432566    77.055567            0    -2836.007    -2836.007    30237.396     25.29944    25.177223    47.470702      864 
     127            0    75.187862    0.5302279    31.650428    51.713944    142.19921   -391.39358    82.304754    77.324653            0   -2836.0101   -2836.0101    30209.606    25.290187    25.168548    47.460779      864 
     128            0    146.21107   0.53657699     260.8073    211.57485   -33.748945   -403.20987    64.203088    65.151117            0   -2836.0131   -2836.0131    30206.669    25.275445    25.159982    47.500009      864 
     129            0   -154.29189   0.54293704   -21.036089   -83.775665   -358.06391    -402.3438     59.60773      61.7541            0   -2836.0154   -2836.0154    30231.246    25.279744    25.165434    47.520274      864 
     130            0    -245.3374     0.546134   -317.61172   -281.21926   -137.18123   -384.64336    84.336258    78.138326            0   -2836.0372   -2836.0372    30236.685    25.299109    25.175927     47.47265      864 
     131            0    143.89307   0.55246496    88.340481    122.42171    220.91703   -388.45513    85.985447     79.81765            0   -2836.0409   -2836.0409      30205.9    25.290038     25.16715    47.457873      864 
     132            0    536.32586   0.55882692     625.2002    576.91129     406.8661   -401.20577    73.722892    73.686043            0   -2836.0464   -2836.0464    30177.348    25.270217    25.154628    47.473822      864 
     133            0    321.06037   0.56204295    562.63294     411.1651   -10.616932     -410.254    55.768396    63.663077            0    -2836.064    -2836.064     30197.73    25.261585    25.154985    47.521446      864 
     134            0     -119.485   0.56841803    27.336341   -72.900762   -312.89057   -399.88605    62.836278    66.805301            0   -2836.0696   -2836.0696    30231.664    25.278169    25.167035    47.520871      864 
     135            0    4.6025447   0.57475495   -18.666212  -0.17658007    32.650426   -387.34651    82.798179    77.812736            0   -2836.0732   -2836.0732    30219.491    25.290219    25.168651    47.476055      864 
     136            0    181.36033    0.5779829    419.96107   -114.04785    238.16778   -407.64946    76.128324    103.57157            0    -2836.161    -2836.161    30211.118    25.264604    25.190728    47.469381      864 
     137            0   -348.04841   0.58118892   -284.70605   -465.60072   -293.83846    -385.3466    82.156146    88.520524            0   -2836.1763   -2836.1763    30254.476    25.290219    25.185778    47.498694      864 
     138            0   -347.38305   0.58440089   -508.72874   -169.05233    -364.3681   -360.28914    93.147021    68.515907            0   -2836.1916   -2836.1916    30256.172    25.309991    25.160292    47.512326      864 
     139            0     128.1001   0.59077692    1.0640876    309.90074    73.335482   -366.30502    94.458848    71.438479            0   -2836.1972   -2836.1972    30218.467    25.297664    25.150886    47.493997      864 
     140            0    180.32252   0.59713483    179.38147     202.1404    159.44571   -379.73074    89.323613    83.388445            0    -2836.201    -2836.201     30214.14    25.285671    25.163629    47.485659      864 
     141            0   -41.113521   0.60349393   -38.444395    -47.19251   -37.703656   -378.87284     87.99964    83.972191            0   -2836.2021   -2836.2021    30231.702    25.289672    25.170304    47.493148      864 
     142            0   -372.75776   0.60671091   -263.86719   -598.74679    -255.6593   -387.43005    84.398202    99.229591            0   -2836.2148   -2836.2148    30258.584    25.286912     25.19579    47.492478      864 
     143            0    521.98377   0.60993195    728.05497    228.19511    609.70123   -400.86413    87.831318    112.18582            0   -2836.2367   -2836.2367    30188.978    25.261297    25.184256    47.452996      864 
     144            0    1693.4894   0.61315489    1927.9745     1441.695    1710.7988   -399.34023    104.13519    126.68156            0   -2836.3094   -2836.3094    30106.565    25.237435     25.15877    47.416183      864 
     145            0    975.90894   0.61638498    1098.4134     786.6063    1042.7071   -371.13954    117.25818    127.83717            0   -2836.4968   -2836.4968    30173.719    25.261817    25.168141    47.458403      864 
     146            0   -17.500478   0.62277293    38.305431   -189.52454    98.717673   -358.12198    113.15082    118.90979            0   -2836.5215   -2836.5215    30252.671    25.286796    25.185915    47.502032      864 
     147            0   0.43587016   0.62913489   -11.566124    22.935825   -10.062091   -349.13564    111.94394    102.79122            0    -2836.524    -2836.524    30252.555      25.2925    25.168924    47.523198      864 
     148            0    -56.29246   0.63236403    232.43509   -93.960645   -307.35183   -372.25051    84.844702    99.593267            0   -2836.5454   -2836.5454    30261.872    25.268003    25.175855    47.570821      864 
     149            0     181.4646   0.63557792    220.90815    184.79997    138.68567   -351.18831    111.55135    106.53012            0   -2836.5657   -2836.5657    30241.716    25.284917    25.167452    47.523198      864 
     150            0   -198.83779   0.64193988   -269.53113    -201.0709   -125.91134   -339.08575    119.14655    107.23333            0   -2836.5701   -2836.5701    30271.521    25.301854    25.175151    47.523652      864 
     151            0   -387.56194   0.64831495   -555.58537   -387.29907   -219.80137   -329.17431    127.03533    108.60594            0   -2836.5717   -2836.5717    30286.246    25.314026    25.178486    47.517615      864 
     152            0    -87.90529   0.65154791   -493.37053   -44.348013    274.00268   -309.32453     152.9557    116.12378            0   -2836.5889   -2836.5889    30261.842    25.328821    25.168726    47.469991      864 
     153            0    217.51473   0.65476584    39.504595    244.66587    368.37371   -330.04773    134.58195    113.28903            0   -2836.5987   -2836.5987     30239.68    25.303206    25.164635    47.490966      864 
     154            0    -112.8518   0.66113091   -144.83016   -121.16856   -72.556692   -340.10045    118.08424    108.83555            0   -2836.6024   -2836.6024    30267.528    25.297126    25.174312    47.527848      864 
     155            0   -43.330918   0.66752982      38.8154   -59.166955    -109.6412   -350.03512    107.67881    106.56445            0   -2836.6031   -2836.6031    30263.127    25.285964    25.173804    47.542874      864 
     156            0    94.133296   0.67390585    142.06333    94.320151    46.016402   -347.86816    111.89372     107.4578            0   -2836.6037   -2836.6037    30251.892    25.286242    25.169721    47.532411      864 
     157            0    8.9671426   0.68027282   -84.319803     32.48199     78.73924   -335.11395    124.27729    109.05328            0   -2836.6053   -2836.6053    30257.628    25.300068    25.169161    47.516501      864 
     158            0   -302.52925   0.68666601   -308.17513   -343.71126   -255.70136   -340.79316    115.22542     109.6287            0   -2836.6079   -2836.6079    30283.421    25.298616     25.18091    47.537544      864 
     159            0   -141.21892   0.68989587    114.65978    -283.0831   -255.23343   -364.05614    95.228958    112.78724            0    -2836.618    -2836.618    30273.167    25.273002    25.186888    47.558323      864 
     160            0    176.08678     0.696275    317.62738    119.69059    90.942358   -355.32104    106.58796    111.44338            0   -2836.6218   -2836.6218    30247.347    25.276758    25.173253    47.536431      864 
     161            0    43.239473   0.70265102   -32.285496     92.75578    69.248135    -334.5212    122.68056    107.11845            0   -2836.6252   -2836.6252    30256.968    25.298093    25.166482    47.524232      864 
     162            0   -74.622492   0.70902395   -116.66293   -56.229978   -50.974564   -336.96714    119.43397    107.91415            0   -2836.6254   -2836.6254    30266.519    25.297494    25.171468    47.530943      864 
     163            0  -0.51072455   0.71543384    75.770229   -51.764542   -25.537861   -348.39022    111.28778    111.48506            0   -2836.6258   -2836.6258    30261.137    25.285812    25.176158    47.535589      864 
     164            0    367.84235   0.72180104    340.35009    444.66097      318.516   -339.47119    120.47249    106.34818            0   -2836.6306   -2836.6306    30232.401    25.287745     25.15806    47.520979      864 
     165            0    177.27407   0.72503495   -100.42108    455.15307    177.09023   -312.07109    135.59562    93.764258            0   -2836.6466   -2836.6466    30248.704    25.313359    25.144435    47.524231      864 
     166            0     -186.083   0.73142385   -342.73564   -56.164065   -159.34929    -322.1895    126.15694    100.87675            0   -2836.6505   -2836.6505     30277.76    25.309951    25.164172    47.538973      864 
     167            0   -25.444978   0.73781395    16.646438   -69.430405   -23.550966   -342.80859    115.40202    112.73273            0   -2836.6526   -2836.6526    30265.119    25.289505    25.176191    47.534839      864 
     168            0    71.833994   0.74419093     85.89736    64.644033    64.960589   -340.51313    117.69038    111.06313            0    -2836.653    -2836.653    30257.394    25.290058    25.171131    47.531221      864 
     169            0   -13.879917   0.75058389    -101.7869    72.374499   -12.227347   -329.69424     123.0904    104.59971            0   -2836.6543   -2836.6543    30264.313    25.300614    25.164693    47.534412      864 
     170            0   -502.79645   0.75380397   -463.80667   -597.82099   -446.76169   -336.52211    114.55161    114.54746            0   -2836.6831   -2836.6831    30306.439    25.299438    25.190179    47.554627      864 
     171            0    302.76962   0.75703382     460.1376    160.89391    287.27734   -350.12717    114.33922       124.17            0   -2836.7133   -2836.7133    30244.659    25.273824    25.178904    47.527056      864 
     172            0    589.19242   0.76027083    722.20103    518.90933     526.4669   -337.77706    122.84648    126.26377            0   -2836.8144   -2836.8144    30232.713    25.271716    25.168333    47.532203      864 
     173            0   -295.29518   0.76349688   -256.87053   -351.38575   -277.62925   -320.81618    123.92574    120.61255            0   -2836.8458   -2836.8458    30305.781     25.29733     25.18439    47.568489      864 
     174            0   -746.11067   0.76672602   -892.03424   -666.90457   -679.39321   -294.60057    134.88608     111.9685            0   -2836.8794   -2836.8794    30347.265    25.322945    25.181814    47.590289      864 
     175            0   -233.91921   0.76996994   -530.50512    33.469072   -204.72158   -275.30736    151.91466    107.62942            0   -2836.9429   -2836.9429    30313.071    25.326924    25.156328     47.57735      864 
     176            0    137.90296   0.77637601   -26.145972    310.15807    129.69679   -290.71638    147.04261    116.35294            0   -2836.9468   -2836.9468    30283.355    25.308036    25.157516    47.563937      864 
     177            0   -0.6122969   0.78277898    4.2385943   -5.9997505 -0.075734435   -306.91768    136.17229    126.66292            0   -2836.9486   -2836.9486    30294.454    25.296006    25.175565    47.569867      864 
     178            0   -367.72311   0.78600883   -408.93176   -199.07085   -495.16671   -292.91002    128.04056    106.42663            0   -2836.9846   -2836.9846    30330.427    25.308006    25.168312     47.61749      864 
     179            0    452.21258   0.79240894    455.69154    625.93449     275.0117   -300.01829    132.16092    112.44613            0   -2837.0018   -2837.0018    30266.938    25.288514    25.152541    47.584259      864 
     180            0    1078.6486   0.79881501    1137.5789    1126.3389    972.02811   -307.11348    138.81713    129.12717            0    -2837.014    -2837.014    30220.568     25.27224    25.151943    47.543083      864 
     181            0    818.31827   0.80205989    899.39514    634.35363    921.20604    -305.8958    143.94465    148.28311            0   -2837.0669   -2837.0669    30245.644    25.276082    25.177429    47.527141      864 
     182            0   -19.180506   0.80848098    9.4254979   -184.10282     117.1358   -295.17858    138.70476    139.16897            0   -2837.0845   -2837.0845    30312.747    25.296797     25.19195    47.566147      864 
     183            0  -0.24217628   0.81488395   -6.6663249    5.2205704   0.71922565   -289.14151    134.61292    123.71071            0   -2837.0865   -2837.0865     30312.72    25.299613     25.17696    47.589127      864 
     184            0    32.769761   0.82131004    142.75735   -1.7560886   -42.691975   -299.42288    124.48795      123.725            0    -2837.087    -2837.087    30311.112    25.288921    25.179933    47.601099      864 
     185            0   -242.88548    0.8277359   -104.61564   -306.39656   -317.64425   -299.88237    119.23128    122.24958            0   -2837.0888   -2837.0888    30334.069    25.291876    25.187868    47.616581      864 
     186            0   -207.04531   0.83098388   -101.83142    -259.3125   -259.99201   -290.17415    116.45441    117.02361            0   -2837.1465   -2837.1465     30340.41    25.295477    25.187473    47.620504      864 
     187            0    21.220161    0.8373909    105.15924   -7.1961222   -34.302632   -289.61481    120.31133    117.92484            0   -2837.1479   -2837.1479    30321.889    25.292917    25.180991    47.608502      864 
     188            0   -1.2655602   0.84381104   -6.2263106    2.9304328   -0.5008029    -281.6358    127.90743    117.67801            0   -2837.1485   -2837.1485    30323.071    25.301063    25.178514    47.599712      864 
     189            0    104.32972   0.85023189    100.99371    48.612323    163.38313   -283.59457    131.63554    124.59188            0    -2837.149    -2837.149     30314.04    25.298851    25.181635    47.583796      864 
     190            0   -62.742378   0.85665894   -75.866663   -220.34932    107.98885   -283.34638    134.96266    132.78077            0   -2837.1502   -2837.1502    30326.803    25.302934    25.193655    47.573441      864 
     191            0    -17.68696   0.85990286   -9.6955009   -176.72561    133.36023   -279.84912    122.81383    123.00393            0   -2837.1931   -2837.1931    30332.041    25.301706    25.194312    47.582726      864 
     192            0    69.146555   0.86631989    68.188081    57.768958    81.482626   -276.78111    117.60751    109.37405            0   -2837.1949   -2837.1949    30326.573    25.300914    25.179969    47.602737      864 
     193            0   -1.7835185   0.87272191   -6.3297736     1.297837   -0.3186188   -275.69202    116.41192    107.24289            0   -2837.1951   -2837.1951    30332.458    25.302613    25.180091    47.608548      864 
     194            0    2.0211032   0.87915802    47.137563   -11.294539   -29.779714   -280.01721    111.84166     106.9725            0   -2837.1951   -2837.1951    30332.583    25.298238    25.181495    47.614321      864 
     195            0   -427.19084   0.88558197         -390   -480.37234   -411.20019   -275.89955    104.84147    102.36359            0   -2837.2001   -2837.2001     30369.03     25.30762    25.193569    47.631024      864 
     196            0   -278.86979    0.8888309    -245.9545   -358.49576   -232.15912   -272.93192    92.383195    92.255882            0   -2837.2303   -2837.2303    30363.941    25.306533    25.194339    47.623633      864 
     197            0    6.2342238   0.89526701    40.710233   -42.282938    20.275377    -274.5176    94.211895    92.269008            0   -2837.2325   -2837.2325    30341.096    25.300894    25.186166    47.613855      864 
     198            0  -0.88624534   0.90169501    -2.728851   0.31122746   -0.2411125   -270.55848    95.560481    88.498674            0   -2837.2327   -2837.2327    30341.831    25.304213    25.181995    47.616647      864 
     199            0    39.770607   0.90812802    46.749411    48.364567    24.197844   -271.40629    94.628499    87.750814            0   -2837.2328   -2837.2328    30338.734    25.302672    25.180597    47.617331      864 
     200            0   -22.875986   0.91455793    35.868327      17.5228   -122.01909   -274.43208    85.475659    80.672487            0   -2837.2333   -2837.2333    30345.012    25.299485    25.179196    47.635833      864 
     201            0    113.18688    0.9178009    218.25625     128.6947   -7.3903078   -277.62612    54.325158    56.524205            0   -2837.2514   -2837.2514    30338.967    25.294373    25.180274    47.633929      864 
     202            0   -117.06707   0.92422104   -70.392229   -118.74599   -162.06299   -271.44811    56.544704    56.016741            0   -2837.2531   -2837.2531    30357.164    25.303981    25.186215    47.633165      864 
     203            0   -160.12966   0.93065596   -224.65653   -174.35981   -81.372652   -262.21455     65.35207      58.1588            0   -2837.2543   -2837.2543     30359.77    25.314652    25.188175    47.613467      864 
     204            0    25.248782   0.93707705   -54.576142    17.699739    112.62275   -262.14056    67.716632    59.027341            0   -2837.2552   -2837.2552    30344.786     25.31245    25.184091    47.601826      864 
     205            0    57.245449   0.94351888    82.685947    58.405324    30.645075   -270.52084    55.039429     53.21886            0   -2837.2559   -2837.2559    30343.724    25.302773    25.182911    47.620596      864 
     206            0   -9.6643581   0.94995904    20.108056   -10.133832   -38.967299   -270.40208    53.651388    52.304374            0    -2837.256    -2837.256    30349.227    25.303698    25.184348    47.624774      864 
     207            0   -21.252462   0.95638704    -33.32061    -18.89717   -11.539608   -266.89038    57.760728    53.395869            0   -2837.2562   -2837.2562    30349.732    25.307562    25.184289    47.618406      864 
     208            0    5.1331972    0.9628129   -8.6746553    8.1314024    15.942845   -266.92856    58.219276    53.673815            0   -2837.2562   -2837.2562    30347.576    25.307203    25.183727     47.61676      864 
     209            0    5.1331972    1.0712049   -8.6746553    8.1314024    15.942845   -266.92856    58.219276    53.673815            0   -2837.2562   -2837.2562    30347.576    25.307203    25.183727     47.61676      864 
Loop time of 1.07122 on 1 procs for 209 steps with 864 atoms

100.1% CPU use with 1 MPI tasks x no OpenMP threads

Minimization stats:
  Stopping criterion = linesearch alpha is zero
  Energy initial, next-to-last, final = 
        -2828.42005222     -2837.25622081     -2837.25622081
  Force two-norm initial, final = 397.725 0.403011
  Force max component initial, final = 244.8 0.302025
  Final line search alpha, max atom move = 6.69876e-08 2.02319e-08
  Iterations, force evaluations = 209 334

MPI task timing breakdown:
Section |  min time  |  avg time  |  max time  |%varavg| %total
---------------------------------------------------------------
Pair    | 1.0279     | 1.0279     | 1.0279     |   0.0 | 95.96
Neigh   | 0.008543   | 0.008543   | 0.008543   |   0.0 |  0.80
Comm    | 0.0036526  | 0.0036526  | 0.0036526  |   0.0 |  0.34
Output  | 0.0064025  | 0.0064025  | 0.0064025  |   0.0 |  0.60
Modify  | 0          | 0          | 0          |   0.0 |  0.00
Other   |            | 0.0247     |            |       |  2.31

Nlocal:    864 ave 864 max 864 min
Histogram: 1 0 0 0 0 0 0 0 0 0
Nghost:    1382 ave 1382 max 1382 min
Histogram: 1 0 0 0 0 0 0 0 0 0
Neighs:    49680 ave 49680 max 49680 min
Histogram: 1 0 0 0 0 0 0 0 0 0

Total # of neighbors = 49680
Ave neighs/atom = 57.5
Neighbor list builds = 1
Dangerous builds = 0
#minimize ${etol} ${ftol} ${maxiter} ${maxeval}
#minimize ${etol} ${ftol} ${maxiter} ${maxeval}

variable tmp equal pxx
variable pxx0 equal ${tmp}
variable pxx0 equal -8.67465525131166
variable tmp equal pyy
variable pyy0 equal ${tmp}
variable pyy0 equal 8.13140243658365
variable tmp equal pzz
variable pzz0 equal ${tmp}
variable pzz0 equal 15.942844522114
variable tmp equal pyz
variable pyz0 equal ${tmp}
variable pyz0 equal 53.6738151477572
variable tmp equal pxz
variable pxz0 equal ${tmp}
variable pxz0 equal 58.2192761199499
variable tmp equal pxy
variable pxy0 equal ${tmp}
variable pxy0 equal -266.92856187294

variable tmp equal lx
variable lx0 equal ${tmp}
variable lx0 equal 25.3072034114712
variable tmp equal ly
variable ly0 equal ${tmp}
variable ly0 equal 25.1837272250182
variable tmp equal lz
variable lz0 equal ${tmp}
variable lz0 equal 47.6167598952424

# These formulas define the derivatives w.r.t. strain components
# Constants uses $, variables use v_
variable d1 equal -(v_pxx1-${pxx0})/(v_delta/v_len0)*${cfac}
variable d1 equal -(v_pxx1--8.67465525131166)/(v_delta/v_len0)*${cfac}
variable d1 equal -(v_pxx1--8.67465525131166)/(v_delta/v_len0)*0.0001
variable d2 equal -(v_pyy1-${pyy0})/(v_delta/v_len0)*${cfac}
variable d2 equal -(v_pyy1-8.13140243658365)/(v_delta/v_len0)*${cfac}
variable d2 equal -(v_pyy1-8.13140243658365)/(v_delta/v_len0)*0.0001
variable d3 equal -(v_pzz1-${pzz0})/(v_delta/v_len0)*${cfac}
variable d3 equal -(v_pzz1-15.942844522114)/(v_delta/v_len0)*${cfac}
variable d3 equal -(v_pzz1-15.942844522114)/(v_delta/v_len0)*0.0001
variable d4 equal -(v_pyz1-${pyz0})/(v_delta/v_len0)*${cfac}
variable d4 equal -(v_pyz1-53.6738151477572)/(v_delta/v_len0)*${cfac}
variable d4 equal -(v_pyz1-53.6738151477572)/(v_delta/v_len0)*0.0001
variable d5 equal -(v_pxz1-${pxz0})/(v_delta/v_len0)*${cfac}
variable d5 equal -(v_pxz1-58.2192761199499)/(v_delta/v_len0)*${cfac}
variable d5 equal -(v_pxz1-58.2192761199499)/(v_delta/v_len0)*0.0001
variable d6 equal -(v_pxy1-${pxy0})/(v_delta/v_len0)*${cfac}
variable d6 equal -(v_pxy1--266.92856187294)/(v_delta/v_len0)*${cfac}
variable d6 equal -(v_pxy1--266.92856187294)/(v_delta/v_len0)*0.0001

# Write restart
unfix 3
minimize ${etol} ${ftol} ${maxiter} ${maxeval}
minimize 0 ${ftol} ${maxiter} ${maxeval}
minimize 0 1e-10 ${maxiter} ${maxeval}
minimize 0 1e-10 1000 ${maxeval}
minimize 0 1e-10 1000 10000
Memory usage per processor = 3.37369 Mbytes
Step Temp Press CPU Pxx Pyy Pzz Pxy Pxz Pyz KinEng PotEng TotEng Volume Lx Ly Lz Atoms 
     209            0    5.1331972            0   -8.6746553    8.1314024    15.942845   -266.92856    58.219276    53.673815            0   -2837.2562   -2837.2562    30347.576    25.307203    25.183727     47.61676      864 
     210            0    2.8977188 0.0062839985   -9.4029786    6.7920098    11.304125   -265.42642     53.68752    49.704106            0   -2837.2582   -2837.2582    30347.576    25.307203    25.183727     47.61676      864 
     211            0    6.8296895 0.0094630718    7.3221494    22.410064   -9.2431455   -265.72432    18.005031    17.431549            0    -2837.265    -2837.265    30347.576    25.307203    25.183727     47.61676      864 
     212            0    10.707328  0.015765905    12.558887    27.798677    -8.235581   -265.27568    13.116685    12.956599            0   -2837.2658   -2837.2658    30347.576    25.307203    25.183727     47.61676      864 
     213            0    19.798957  0.022072077    22.007452    38.016703  -0.62728513   -264.62449    6.9947318    7.4519143            0   -2837.2661   -2837.2661    30347.576    25.307203    25.183727     47.61676      864 
     214            0    28.987083  0.028369904    29.937718    46.146036    10.877493   -263.91958    5.6210702    6.1532554            0   -2837.2664   -2837.2664    30347.576    25.307203    25.183727     47.61676      864 
     215            0    29.272845  0.034677029     30.78561    46.608636     10.42429    -263.3512    5.1022128    5.6307449            0   -2837.2664   -2837.2664    30347.576    25.307203    25.183727     47.61676      864 
     216            0    24.808701  0.040972948    28.156617    43.449462    2.8200241   -262.76574    3.5816061    4.1990462            0   -2837.2665   -2837.2665    30347.576    25.307203    25.183727     47.61676      864 
     217            0    22.065293  0.047272921    26.149784    41.232002   -1.1859054   -262.51503    3.1930828    3.7951168            0   -2837.2665   -2837.2665    30347.576    25.307203    25.183727     47.61676      864 
     218            0    22.300928  0.053570986    26.158102    41.313972  -0.56928894   -262.45383    3.4962437    4.0491196            0   -2837.2665   -2837.2665    30347.576    25.307203    25.183727     47.61676      864 
     219            0     22.65284  0.059869051    26.285168    41.559424   0.11392829   -262.34615    3.6103212    4.1456421            0   -2837.2665   -2837.2665    30347.576    25.307203    25.183727     47.61676      864 
     220            0    22.569674  0.066167116    26.060067    41.384571   0.26438292   -262.22306    3.7121954    4.2075025            0   -2837.2665   -2837.2665    30347.576    25.307203    25.183727     47.61676      864 
     221            0    22.705628  0.072468996    26.182605    41.458689    0.4755899   -262.12664    3.8043488    4.2624961            0   -2837.2665   -2837.2665    30347.576    25.307203    25.183727     47.61676      864 
     222            0    22.869985  0.078766108    26.383415    41.601153   0.62538685   -262.05782    3.8158834    4.2484635            0   -2837.2665   -2837.2665    30347.576    25.307203    25.183727     47.61676      864 
     223            0    22.918486  0.085069895    26.480432    41.649354   0.62567318   -262.02177    3.7621477    4.1576457            0   -2837.2665   -2837.2665    30347.576    25.307203    25.183727     47.61676      864 
     224            0    22.752283  0.091363907    26.352569    41.518765   0.38551678   -262.00563    3.6399491    3.9928785            0   -2837.2665   -2837.2665    30347.576    25.307203    25.183727     47.61676      864 
     225            0    22.356241  0.097671032    26.007715    41.232353  -0.17134646   -262.04135    3.2215436    3.5240597            0   -2837.2665   -2837.2665    30347.576    25.307203    25.183727     47.61676      864 
     226            0    22.039185   0.10396409    25.695541    40.983208  -0.56119363   -262.13405    2.7297534     2.990663            0   -2837.2665   -2837.2665    30347.576    25.307203    25.183727     47.61676      864 
     227            0      21.8868   0.11026812      25.5472    40.855523  -0.74232425    -262.2078    2.2474732     2.463144            0   -2837.2665   -2837.2665    30347.576    25.307203    25.183727     47.61676      864 
     228            0    22.018074   0.11656499    25.716139    41.017443  -0.67936071   -262.25583    1.6803035    1.8475122            0   -2837.2665   -2837.2665    30347.576    25.307203    25.183727     47.61676      864 
     229            0    22.301209   0.12286711    25.999828    41.297271  -0.39347149   -262.27145     1.246494    1.3705027            0   -2837.2665   -2837.2665    30347.576    25.307203    25.183727     47.61676      864 
     230            0    22.304362   0.12917089    26.048251    41.357392  -0.49255887   -262.26727   0.84569024   0.94019875            0   -2837.2665   -2837.2665    30347.576    25.307203    25.183727     47.61676      864 
     231            0    22.228445   0.13546491    26.042442    41.364499  -0.72160701   -262.26124   0.46897588   0.55137033            0   -2837.2665   -2837.2665    30347.576    25.307203    25.183727     47.61676      864 
     232            0    22.290634   0.14177203    26.107727    41.435871  -0.67169621   -262.27086   0.26554634   0.33788642            0   -2837.2665   -2837.2665    30347.576    25.307203    25.183727     47.61676      864 
     233            0    22.334802     0.148067    26.143644    41.475445  -0.61468222   -262.28767   0.16725067   0.23163046            0   -2837.2665   -2837.2665    30347.576    25.307203    25.183727     47.61676      864 
     234            0     22.36425   0.15437889    26.171988    41.506738  -0.58597612   -262.29198  0.076766464   0.13541686            0   -2837.2665   -2837.2665    30347.576    25.307203    25.183727     47.61676      864 
     235            0    22.461108   0.16067505    26.245242    41.584806  -0.44672502    -262.2928  0.024782912  0.076349863            0   -2837.2665   -2837.2665    30347.576    25.307203    25.183727     47.61676      864 
     236            0    22.562764   0.16697907    26.320034    41.664156  -0.29589755    -262.2959 -0.0068673511  0.037207258            0   -2837.2665   -2837.2665    30347.576    25.307203    25.183727     47.61676      864 
     237            0    22.604659   0.17327809    26.353554    41.695729  -0.23530627   -262.29187 -0.022073183  0.017303108            0   -2837.2665   -2837.2665    30347.576    25.307203    25.183727     47.61676      864 
     238            0    22.633915   0.17957401    26.380592    41.718599  -0.19744637   -262.28892 -0.024632959  0.011457427            0   -2837.2665   -2837.2665    30347.576    25.307203    25.183727     47.61676      864 
     239            0    22.667333   0.18587089    26.409467     41.74542  -0.15288827   -262.28854 -0.019631334  0.013678329            0   -2837.2665   -2837.2665    30347.576    25.307203    25.183727     47.61676      864 
     240            0    22.692261   0.19217205    26.427351    41.764531  -0.11509946   -262.28707 -0.015151143  0.016128792            0   -2837.2665   -2837.2665    30347.576    25.307203    25.183727     47.61676      864 
     241            0    22.707227   0.19847202    26.436225    41.775437 -0.089982563   -262.28555 -0.013528273  0.015910459            0   -2837.2665   -2837.2665    30347.576    25.307203    25.183727     47.61676      864 
     242            0    22.718239   0.20477104    26.442964    41.782913 -0.071158187   -262.28537 -0.011973558  0.015581346            0   -2837.2665   -2837.2665    30347.576    25.307203    25.183727     47.61676      864 
     243            0    22.729652   0.21106696    26.450901     41.79071 -0.052655296   -262.28617   -0.0111396  0.014896328            0   -2837.2665   -2837.2665    30347.576    25.307203    25.183727     47.61676      864 
     244            0    22.736104   0.21737289    26.455629    41.795055 -0.042371098   -262.28665 -0.011454689    0.0136592            0   -2837.2665   -2837.2665    30347.576    25.307203    25.183727     47.61676      864 
     245            0    22.738878   0.22366691    26.457786    41.797139 -0.038292212   -262.28683  -0.01173222  0.012673249            0   -2837.2665   -2837.2665    30347.576    25.307203    25.183727     47.61676      864 
     246            0    22.743389   0.22996998    26.461269    41.800878  -0.03197864   -262.28697 -0.011503926  0.012039077            0   -2837.2665   -2837.2665    30347.576    25.307203    25.183727     47.61676      864 
     247            0    22.747812   0.23626304    26.464666    41.804549 -0.025779179   -262.28692 -0.011284248  0.011387942            0   -2837.2665   -2837.2665    30347.576    25.307203    25.183727     47.61676      864 
     248            0    22.749865   0.24256396    26.466334    41.806386 -0.023125617   -262.28697 -0.011398854  0.010558599            0   -2837.2665   -2837.2665    30347.576    25.307203    25.183727     47.61676      864 
     249            0    22.752338   0.24886608    26.468263    41.808422 -0.019669716   -262.28722 -0.011395073 0.0098194116            0   -2837.2665   -2837.2665    30347.576    25.307203    25.183727     47.61676      864 
     250            0    22.756027   0.25516105    26.471122     41.81135  -0.01439152   -262.28741 -0.011151679 0.0090772478            0   -2837.2665   -2837.2665    30347.576    25.307203    25.183727     47.61676      864 
     251            0    22.759492   0.26146388    26.473865    41.814181 -0.0095689367   -262.28745 -0.010723379 0.0082584777            0   -2837.2665   -2837.2665    30347.576    25.307203    25.183727     47.61676      864 
     252            0     22.76289   0.26776004    26.476459    41.816936 -0.0047264498   -262.28742 -0.009995749  0.007469557            0   -2837.2665   -2837.2665    30347.576    25.307203    25.183727     47.61676      864 
     253            0    22.765787   0.27406502    26.478634    41.819261 -0.00053371703    -262.2873 -0.0091791984 0.0069031853            0   -2837.2665   -2837.2665    30347.576    25.307203    25.183727     47.61676      864 
     254            0    22.767812   0.28035998    26.480153    41.820915  0.002369485   -262.28709 -0.008310237 0.0064076314            0   -2837.2665   -2837.2665    30347.576    25.307203    25.183727     47.61676      864 
     255            0    22.768938   0.28666401    26.480903    41.821792 0.0041191465   -262.28701 -0.0074836439 0.0059667586            0   -2837.2665   -2837.2665    30347.576    25.307203    25.183727     47.61676      864 
     256            0    22.769651   0.29296207    26.481298    41.822304 0.0053500392   -262.28699 -0.0066285965 0.0056154877            0   -2837.2665   -2837.2665    30347.576    25.307203    25.183727     47.61676      864 
     257            0    22.770045    0.2992599    26.481512    41.822625 0.0059975243   -262.28696 -0.0058422879 0.0053117528            0   -2837.2665   -2837.2665    30347.576    25.307203    25.183727     47.61676      864 
     258            0    22.770174   0.30555701    26.481523    41.822758 0.0062413372   -262.28695 -0.0051382331 0.0049199789            0   -2837.2665   -2837.2665    30347.576    25.307203    25.183727     47.61676      864 
     259            0    22.769921   0.31185603    26.481204    41.822592 0.0059661882   -262.28696 -0.0043334207  0.004347191            0   -2837.2665   -2837.2665    30347.576    25.307203    25.183727     47.61676      864 
     260            0    22.769323   0.31815195    26.480635    41.822211  0.005122292   -262.28696 -0.003277289 0.0035488836            0   -2837.2665   -2837.2665    30347.576    25.307203    25.183727     47.61676      864 
     261            0    22.768572   0.32445407     26.47995    41.821732 0.0040339256   -262.28693 -0.0020592126  0.002587554            0   -2837.2665   -2837.2665    30347.576    25.307203    25.183727     47.61676      864 
     262            0     22.76757    0.3307519    26.479084    41.821064 0.0025631597    -262.2869 -0.0011046324 0.0015999948            0   -2837.2665   -2837.2665    30347.576    25.307203    25.183727     47.61676      864 
     263            0    22.766669   0.33705711    26.478339    41.820473 0.0011938374   -262.28688 -0.00047503614 0.00084150891            0   -2837.2665   -2837.2665    30347.576    25.307203    25.183727     47.61676      864 
     264            0    22.766327   0.34335089    26.478039    41.820252 0.00069073419   -262.28687 -0.00015307608 0.00051165661            0   -2837.2665   -2837.2665    30347.576    25.307203    25.183727     47.61676      864 
     265            0    22.766145   0.34965491    26.477879    41.820139 0.00041767448   -262.28689 -3.3990534e-05 0.0002991217            0   -2837.2665   -2837.2665    30347.576    25.307203    25.183727     47.61676      864 
     266            0       22.766   0.35594797    26.477758    41.820047 0.00019601084   -262.28691 -8.9253194e-06 0.00015127453            0   -2837.2665   -2837.2665    30347.576    25.307203    25.183727     47.61676      864 
     267            0    22.765938   0.36225104    26.477698    41.820001 0.00011406921   -262.28692 2.5706833e-06 8.028999e-05            0   -2837.2665   -2837.2665    30347.576    25.307203    25.183727     47.61676      864 
     268            0    22.765909   0.36854601    26.477672    41.819981 7.4173171e-05   -262.28694 1.6571299e-06 4.0844186e-05            0   -2837.2665   -2837.2665    30347.576    25.307203    25.183727     47.61676      864 
     269            0    22.765887   0.37484598    26.477658    41.819967 3.4598698e-05   -262.28694 -3.0990805e-06 1.8409693e-05            0   -2837.2665   -2837.2665    30347.576    25.307203    25.183727     47.61676      864 
     270            0    22.765875   0.38115692    26.477652    41.819961 1.3429285e-05   -262.28694 -3.5727088e-06 8.1654619e-06            0   -2837.2665   -2837.2665    30347.576    25.307203    25.183727     47.61676      864 
     271            0    22.765874   0.38745189    26.477652    41.819962 7.791645e-06   -262.28694 -1.9083794e-06 3.951188e-06            0   -2837.2665   -2837.2665    30347.576    25.307203    25.183727     47.61676      864 
     272            0    22.765877   0.39375591    26.477657    41.819967 6.0301788e-06   -262.28694 -2.1874501e-06 9.5427134e-07            0   -2837.2665   -2837.2665    30347.576    25.307203    25.183727     47.61676      864 
     273            0    22.765876   0.40005803    26.477657    41.819968 2.990884e-06   -262.28694 -2.3149485e-06 -4.2989362e-07            0   -2837.2665   -2837.2665    30347.576    25.307203    25.183727     47.61676      864 
     274            0    22.765874   0.40636396    26.477655    41.819966 3.3830199e-07   -262.28694 -1.1266836e-06 -1.1416444e-07            0   -2837.2665   -2837.2665    30347.576    25.307203    25.183727     47.61676      864 
     275            0    22.765874   0.41266108    26.477655    41.819966 4.4989562e-07   -262.28694 1.1619958e-07 5.782567e-07            0   -2837.2665   -2837.2665    30347.576    25.307203    25.183727     47.61676      864 
     276            0    22.765874   0.41897798    26.477655    41.819966 1.4440781e-06   -262.28694 1.1969396e-06 1.3450046e-06            0   -2837.2665   -2837.2665    30347.576    25.307203    25.183727     47.61676      864 
     277            0    22.765873   0.42527699    26.477654    41.819965 6.4358608e-07   -262.28694 1.8608343e-06 1.8680826e-06            0   -2837.2665   -2837.2665    30347.576    25.307203    25.183727     47.61676      864 
     278            0    22.765872   0.43157601    26.477653    41.819964 1.6749153e-08   -262.28694 2.4053849e-06 2.3376775e-06            0   -2837.2665   -2837.2665    30347.576    25.307203    25.183727     47.61676      864 
     279            0    22.765872   0.43787408    26.477653    41.819964 6.1053277e-08   -262.28694 2.6879497e-06 2.569638e-06            0   -2837.2665   -2837.2665    30347.576    25.307203    25.183727     47.61676      864 
     280            0    22.765872   0.44417596    26.477653    41.819964 -1.0723601e-07   -262.28694 2.6981298e-06 2.5360244e-06            0   -2837.2665   -2837.2665    30347.576    25.307203    25.183727     47.61676      864 
     281            0    22.765872   0.45047498    26.477653    41.819964 -2.1922481e-07   -262.28694 2.7337475e-06  2.54264e-06            0   -2837.2665   -2837.2665    30347.576    25.307203    25.183727     47.61676      864 
     282            0    22.765872    0.4567771    26.477653    41.819964 -9.4500977e-08   -262.28694 2.7529336e-06 2.5584179e-06            0   -2837.2665   -2837.2665    30347.576    25.307203    25.183727     47.61676      864 
     283            0    22.765872   0.46307111    26.477653    41.819964 -3.8295845e-08   -262.28694 2.6904927e-06 2.5024665e-06            0   -2837.2665   -2837.2665    30347.576    25.307203    25.183727     47.61676      864 
     284            0    22.765872   0.46937609    26.477653    41.819964 -7.7891739e-08   -262.28694 2.6026273e-06 2.4197388e-06            0   -2837.2665   -2837.2665    30347.576    25.307203    25.183727     47.61676      864 
     285            0    22.765872    0.4756701    26.477653    41.819964 -1.0178621e-07   -262.28694 2.4740837e-06 2.2909062e-06            0   -2837.2665   -2837.2665    30347.576    25.307203    25.183727     47.61676      864 
     286            0    22.765872   0.48197603    26.477653    41.819964 -7.839606e-08   -262.28694 2.3173615e-06 2.1283607e-06            0   -2837.2665   -2837.2665    30347.576    25.307203    25.183727     47.61676      864 
     287            0    22.765872   0.48827195    26.477653    41.819964 -5.6564508e-08   -262.28694  2.13853e-06 1.9480482e-06            0   -2837.2665   -2837.2665    30347.576    25.307203    25.183727     47.61676      864 
     288            0    22.765872   0.49457312    26.477653    41.819964 -7.1074684e-08   -262.28694 1.8815516e-06 1.6985521e-06            0   -2837.2665   -2837.2665    30347.576    25.307203    25.183727     47.61676      864 
     289            0    22.765872    0.5008781    26.477653    41.819964 -7.9150713e-08   -262.28694 1.5660885e-06 1.4017947e-06            0   -2837.2665   -2837.2665    30347.576    25.307203    25.183727     47.61676      864 
     290            0    22.765872   0.50717306    26.477653    41.819964 -6.2628863e-08   -262.28694  1.23353e-06 1.0984698e-06            0   -2837.2665   -2837.2665    30347.576    25.307203    25.183727     47.61676      864 
     291            0    22.765872   0.51347804    26.477653    41.819964 -6.6190732e-08   -262.28694 8.9525661e-07 7.9288586e-07            0   -2837.2665   -2837.2665    30347.576    25.307203    25.183727     47.61676      864 
     292            0    22.765872   0.51977205    26.477653    41.819964 -8.2307517e-08   -262.28694 5.7132439e-07 5.017778e-07            0   -2837.2665   -2837.2665    30347.576    25.307203    25.183727     47.61676      864 
     293            0    22.765872   0.52607703    26.477653    41.819964 -4.5533603e-08   -262.28694 3.276076e-07 2.8347974e-07            0   -2837.2665   -2837.2665    30347.576    25.307203    25.183727     47.61676      864 
     294            0    22.765872     0.532372    26.477653    41.819964 -1.7607135e-08   -262.28694 1.8882648e-07 1.5838157e-07            0   -2837.2665   -2837.2665    30347.576    25.307203    25.183727     47.61676      864 
     295            0    22.765872   0.53867507    26.477653    41.819964 -4.5677488e-08   -262.28694 1.1147372e-07 8.8659415e-08            0   -2837.2665   -2837.2665    30347.576    25.307203    25.183727     47.61676      864 
     296            0    22.765872   0.54497194    26.477653    41.819964 -4.6442398e-08   -262.28694 7.6831733e-08 5.8559553e-08            0   -2837.2665   -2837.2665    30347.576    25.307203    25.183727     47.61676      864 
     297            0    22.765872   0.55126905    26.477653    41.819964 -1.9971674e-08   -262.28694 6.7344303e-08 5.1279795e-08            0   -2837.2665   -2837.2665    30347.576    25.307203    25.183727     47.61676      864 
     298            0    22.765872   0.55756688    26.477653    41.819964 -1.4730808e-08   -262.28694 5.1599271e-08 3.8659989e-08            0   -2837.2665   -2837.2665    30347.576    25.307203    25.183727     47.61676      864 
     299            0    22.765872   0.56386805    26.477653    41.819964 -1.6120431e-08   -262.28694 3.6901548e-08 2.7985594e-08            0   -2837.2665   -2837.2665    30347.576    25.307203    25.183727     47.61676      864 
     300            0    22.765872   0.57017088    26.477653    41.819964 -8.5505163e-09   -262.28694 2.9703687e-08 2.4369247e-08            0   -2837.2665   -2837.2665    30347.576    25.307203    25.183727     47.61676      864 
     301            0    22.765872   0.57961702    26.477653    41.819964 -6.1589449e-09   -262.28694 2.2976895e-08 2.0663465e-08            0   -2837.2665   -2837.2665    30347.576    25.307203    25.183727     47.61676      864 
Loop time of 0.579635 on 1 procs for 92 steps with 864 atoms

100.1% CPU use with 1 MPI tasks x no OpenMP threads

Minimization stats:
  Stopping criterion = force tolerance
  Energy initial, next-to-last, final = 
        -2837.25622081     -2837.26648808     -2837.26648808
  Force two-norm initial, final = 0.138731 8.49841e-11
  Force max component initial, final = 0.011716 5.67617e-12
  Final line search alpha, max atom move = 1 5.67617e-12
  Iterations, force evaluations = 92 183

MPI task timing breakdown:
Section |  min time  |  avg time  |  max time  |%varavg| %total
---------------------------------------------------------------
Pair    | 0.57092    | 0.57092    | 0.57092    |   0.0 | 98.50
Neigh   | 0          | 0          | 0          |   0.0 |  0.00
Comm    | 0.0019908  | 0.0019908  | 0.0019908  |   0.0 |  0.34
Output  | 0.002774   | 0.002774   | 0.002774   |   0.0 |  0.48
Modify  | 0          | 0          | 0          |   0.0 |  0.00
Other   |            | 0.003953   |            |       |  0.68

Nlocal:    864 ave 864 max 864 min
Histogram: 1 0 0 0 0 0 0 0 0 0
Nghost:    1382 ave 1382 max 1382 min
Histogram: 1 0 0 0 0 0 0 0 0 0
Neighs:    49680 ave 49680 max 49680 min
Histogram: 1 0 0 0 0 0 0 0 0 0

Total # of neighbors = 49680
Ave neighs/atom = 57.5
Neighbor list builds = 0
Dangerous builds = 0
#fix 1a all qeq/comb 1 0.0001 file fq.out
write_restart restart.equil
write_data data0

# uxx Perturbation

variable dir equal 1
include /users/knc6/displace.mod
# NOTE: This script should not need to be
# modified. See in.elastic for more info.
#
# Find which reference length to use

if "${dir} == 1" then    "variable len0 equal ${lx0}"
variable len0 equal ${lx0}
variable len0 equal 25.3072034114712
if "${dir} == 2" then    "variable len0 equal ${ly0}"
if "${dir} == 3" then    "variable len0 equal ${lz0}"
if "${dir} == 4" then    "variable len0 equal ${lz0}"
if "${dir} == 5" then    "variable len0 equal ${lz0}"
if "${dir} == 6" then    "variable len0 equal ${ly0}"

# Reset box and simulation parameters

clear
box tilt large
read_restart restart.equil
  triclinic box = (0.153623 0.151164 0.0034783) to (25.4608 25.3349 47.6202) with tilt (2.53106 0 0)
  1 by 1 by 1 MPI processor grid
  864 atoms
include potential.mod
pair_style eam/alloy
pair_coeff * * /users/knc6/Software/jarvis/jarvis/lammps/examples/Al03.eam.alloy  Al
neighbor 1.0 nsq
neigh_modify once no every 1 delay 0 check yes
min_style  cg
min_modify           dmax ${dmax} line quadratic
min_modify           dmax 0.01 line quadratic
thermo          1
thermo_style custom step temp press cpu pxx pyy pzz pxy pxz pyz ke pe etotal vol lx ly lz atoms
thermo_modify norm no
# Negative deformation

variable delta equal -${up}*${len0}
variable delta equal -1e-06*${len0}
variable delta equal -1e-06*25.3072034114712
if "${dir} == 1" then    "change_box all x delta 0 ${delta} remap units box"
change_box all x delta 0 ${delta} remap units box
change_box all x delta 0 -2.53072034114712e-05 remap units box
[...]
     310            0    22.770618  0.057638884    26.483004    41.829793 -0.00094292543   -262.44496 -0.0028728075 -0.0016776057            0   -2837.2665   -2837.2665    30347.576    25.307203    25.183727     47.61676      864 
     311            0     22.77074  0.064041853     26.48309    41.829891 -0.00076025482   -262.44495 -0.0026802404 -0.0015618191            0   -2837.2665   -2837.2665    30347.576    25.307203    25.183727     47.61676      864 
     312            0    22.770873  0.070445061    26.483172     41.82999 -0.00054342256   -262.44494 -0.0024398276 -0.0014182227            0   -2837.2665   -2837.2665    30347.576    25.307203    25.183727     47.61676      864 
     313            0    22.771149  0.076845884    26.483369    41.830201 -0.00012387516   -262.44493 -0.0021453974 -0.0012416713            0   -2837.2665   -2837.2665    30347.576    25.307203    25.183727     47.61676      864 
     314            0    22.771483  0.083250046     26.48361     41.83045 0.00039015718   -262.44491 -0.0017652058 -0.0010147574            0   -2837.2665   -2837.2665    30347.576    25.307203    25.183727     47.61676      864 
     315            0    22.771741  0.089650869    26.483783     41.83063 0.00081021035    -262.4449 -0.0013592985 -0.00077419734            0   -2837.2665   -2837.2665    30347.576    25.307203    25.183727     47.61676      864 
     316            0    22.771891  0.096058846    26.483876    41.830729  0.001067388   -262.44489 -0.00097911683 -0.00055731923            0   -2837.2665   -2837.2665    30347.576    25.307203    25.183727     47.61676      864 
     317            0    22.771932   0.10245991     26.48389    41.830746 0.0011608607   -262.44488 -0.00068738515 -0.00038746305            0   -2837.2665   -2837.2665    30347.576    25.307203    25.183727     47.61676      864 
     318            0     22.77193   0.10887003    26.483874    41.830733 0.0011833338   -262.44487 -0.00048827743 -0.00026134918            0   -2837.2665   -2837.2665    30347.576    25.307203    25.183727     47.61676      864 
     319            0    22.771887    0.1152699     26.48383    41.830693 0.0011389713   -262.44487 -0.00033411272 -0.00015782994            0   -2837.2665   -2837.2665    30347.576    25.307203    25.183727     47.61676      864 
     320            0    22.771812   0.12167788    26.483764     41.83063 0.0010398717   -262.44487 -0.00023979194 -9.6723704e-05            0   -2837.2665   -2837.2665    30347.576    25.307203    25.183727     47.61676      864 
     321            0    22.771704   0.12808394    26.483677    41.830547 0.00088796691   -262.44487 -0.00017441572 -5.8094577e-05            0   -2837.2665   -2837.2665    30347.576    25.307203    25.183727     47.61676      864 
     322            0    22.771598   0.13448501     26.48359    41.830463 0.00074224501   -262.44487 -0.00012352228 -2.9589521e-05            0   -2837.2665   -2837.2665    30347.576    25.307203    25.183727     47.61676      864 
     323            0    22.771504   0.14089394    26.483512    41.830387 0.00061365527   -262.44486 -9.0123276e-05 -1.4010069e-05            0   -2837.2665   -2837.2665    30347.576    25.307203    25.183727     47.61676      864 
     324            0    22.771406   0.14730406    26.483431    41.830307 0.00047922528   -262.44486 -6.5648079e-05 -3.742294e-06            0   -2837.2665   -2837.2665    30347.576    25.307203    25.183727     47.61676      864 
     325            0    22.771277   0.15371394    26.483327    41.830204 0.00029969837   -262.44486 -3.80486e-05 7.5667601e-06            0   -2837.2665   -2837.2665    30347.576    25.307203    25.183727     47.61676      864 
     326            0    22.771175   0.16011596    26.483247    41.830125 0.00015473098   -262.44486 -1.9318882e-05 1.5426616e-05            0   -2837.2665   -2837.2665    30347.576    25.307203    25.183727     47.61676      864 
     327            0    22.771131   0.16652203    26.483212    41.830091 8.9355333e-05   -262.44486 -1.2041018e-05 1.8118737e-05            0   -2837.2665   -2837.2665    30347.576    25.307203    25.183727     47.61676      864 
     328            0     22.77111   0.17292595    26.483196    41.830076 5.733134e-05   -262.44486 -8.1907966e-06 1.993619e-05            0   -2837.2665   -2837.2665    30347.576    25.307203    25.183727     47.61676      864 
     329            0    22.771096   0.17933297    26.483187    41.830067 3.3968939e-05   -262.44486 -6.7240619e-06 2.0071361e-05            0   -2837.2665   -2837.2665    30347.576    25.307203    25.183727     47.61676      864 
     330            0    22.771086   0.18573689     26.48318     41.83006 1.7978264e-05   -262.44486 -7.414043e-06 1.845612e-05            0   -2837.2665   -2837.2665    30347.576    25.307203    25.183727     47.61676      864 
     331            0     22.77108   0.19214606    26.483176    41.830056 8.1322109e-06   -262.44486 -8.3422613e-06 1.6662897e-05            0   -2837.2665   -2837.2665    30347.576    25.307203    25.183727     47.61676      864 
     332            0    22.771077   0.19854593    26.483174    41.830054 3.3873954e-06   -262.44486 -8.5929801e-06 1.5741614e-05            0   -2837.2665   -2837.2665    30347.576    25.307203    25.183727     47.61676      864 
     333            0    22.771075   0.20495391    26.483172    41.830052 5.1696613e-07   -262.44486 -8.4149656e-06 1.5077861e-05            0   -2837.2665   -2837.2665    30347.576    25.307203    25.183727     47.61676      864 
     334            0    22.771074   0.21136189    26.483172    41.830051 -9.8730043e-07   -262.44486 -8.4640241e-06 1.4257369e-05            0   -2837.2665   -2837.2665    30347.576    25.307203    25.183727     47.61676      864 
     335            0    22.771074   0.21777105    26.483171    41.830051 -1.4273311e-06   -262.44486 -8.3052254e-06 1.3638983e-05            0   -2837.2665   -2837.2665    30347.576    25.307203    25.183727     47.61676      864 
     336            0    22.771074   0.22417784    26.483171    41.830051 -1.2709419e-06   -262.44486 -7.9424644e-06 1.3130905e-05            0   -2837.2665   -2837.2665    30347.576    25.307203    25.183727     47.61676      864 
     337            0    22.771074   0.23057985    26.483171    41.830052 -9.3103634e-07   -262.44486 -7.4708841e-06 1.2620324e-05            0   -2837.2665   -2837.2665    30347.576    25.307203    25.183727     47.61676      864 
     338            0    22.771074   0.23699093    26.483171    41.830052 -6.9658648e-07   -262.44486 -6.8892298e-06 1.1980818e-05            0   -2837.2665   -2837.2665    30347.576    25.307203    25.183727     47.61676      864 
     339            0    22.771074     0.243402    26.483171    41.830052 -7.7156071e-07   -262.44486 -5.8692283e-06 1.057159e-05            0   -2837.2665   -2837.2665    30347.576    25.307203    25.183727     47.61676      864 
     340            0    22.771074   0.24981284    26.483171    41.830052 -1.1868175e-06   -262.44486 -4.8092087e-06 8.678276e-06            0   -2837.2665   -2837.2665    30347.576    25.307203    25.183727     47.61676      864 
     341            0    22.771074   0.25621796     26.48317    41.830052 -1.3538154e-06   -262.44486 -3.4283678e-06 6.253696e-06            0   -2837.2665   -2837.2665    30347.576    25.307203    25.183727     47.61676      864 
     342            0    22.771074   0.26262188     26.48317    41.830052 -9.1500394e-07   -262.44486 -2.0073581e-06 4.2293901e-06            0   -2837.2665   -2837.2665    30347.576    25.307203    25.183727     47.61676      864 
     343            0    22.771074   0.26902485     26.48317    41.830052 -6.8058174e-07   -262.44486 -8.3109866e-07 2.4611191e-06            0   -2837.2665   -2837.2665    30347.576    25.307203    25.183727     47.61676      864 
     344            0    22.771074   0.27543092    26.483171    41.830053 -3.8729246e-07   -262.44486 -2.4973037e-07 1.5059187e-06            0   -2837.2665   -2837.2665    30347.576    25.307203    25.183727     47.61676      864 
     345            0    22.771075   0.28183699    26.483171    41.830053 -4.6449965e-08   -262.44486 -2.8531314e-09 8.9339756e-07            0   -2837.2665   -2837.2665    30347.576    25.307203    25.183727     47.61676      864 
     346            0    22.771075   0.28824496    26.483171    41.830053 -5.7258801e-09   -262.44486 7.3790295e-08 5.1115755e-07            0   -2837.2665   -2837.2665    30347.576    25.307203    25.183727     47.61676      864 
     347            0    22.771075   0.29464602    26.483171    41.830053 2.8357786e-09   -262.44486 6.5657774e-08 2.8471201e-07            0   -2837.2665   -2837.2665    30347.576    25.307203    25.183727     47.61676      864 
     348            0    22.771075   0.30105495    26.483171    41.830053 -2.0003109e-08   -262.44486 2.4644494e-08 1.4277836e-07            0   -2837.2665   -2837.2665    30347.576    25.307203    25.183727     47.61676      864 
     349            0    22.771075   0.30745506    26.483171    41.830053 -7.336721e-08   -262.44486 1.0654671e-09 6.1669957e-08            0   -2837.2665   -2837.2665    30347.576    25.307203    25.183727     47.61676      864 
     350            0    22.771075   0.31386304    26.483171    41.830053 -7.5566923e-08   -262.44486 -1.3195038e-08 1.9725384e-08            0   -2837.2665   -2837.2665    30347.576    25.307203    25.183727     47.61676      864 
     351            0    22.771075   0.32027292    26.483171    41.830053 -4.4434322e-08   -262.44486 -2.0674448e-08 -3.6840747e-09            0   -2837.2665   -2837.2665    30347.576    25.307203    25.183727     47.61676      864 
     352            0    22.771075   0.32667303    26.483171    41.830053 -1.1770699e-08   -262.44486 -2.234741e-08 -1.2122385e-08            0   -2837.2665   -2837.2665    30347.576    25.307203    25.183727     47.61676      864 
     353            0    22.771075   0.33308101    26.483171    41.830053 3.9841373e-09   -262.44486 -1.776639e-08 -1.2182074e-08            0   -2837.2665   -2837.2665    30347.576    25.307203    25.183727     47.61676      864 
     354            0    22.771075   0.33948207    26.483171    41.830053 1.0737498e-09   -262.44486 -1.6008663e-08 -1.1636664e-08            0   -2837.2665   -2837.2665    30347.576    25.307203    25.183727     47.61676      864 
     355            0    22.771075   0.34905696    26.483171    41.830053 1.3729534e-09   -262.44486 -1.1149239e-08 -7.2460087e-09            0   -2837.2665   -2837.2665    30347.576    25.307203    25.183727     47.61676      864 
Loop time of 0.349076 on 1 procs for 54 steps with 864 atoms

99.7% CPU use with 1 MPI tasks x no OpenMP threads

Minimization stats:
  Stopping criterion = force tolerance
  Energy initial, next-to-last, final = 
        -2837.26648311     -2837.26648311     -2837.26648311
  Force two-norm initial, final = 2.05557e-05 8.78469e-11
  Force max component initial, final = 2.04466e-06 5.6683e-12
  Final line search alpha, max atom move = 1 5.6683e-12
  Iterations, force evaluations = 54 108

MPI task timing breakdown:
Section |  min time  |  avg time  |  max time  |%varavg| %total
---------------------------------------------------------------
Pair    | 0.34391    | 0.34391    | 0.34391    |   0.0 | 98.52
Neigh   | 0          | 0          | 0          |   0.0 |  0.00
Comm    | 0.0011885  | 0.0011885  | 0.0011885  |   0.0 |  0.34
Output  | 0.0016277  | 0.0016277  | 0.0016277  |   0.0 |  0.47
Modify  | 0          | 0          | 0          |   0.0 |  0.00
Other   |            | 0.002351   |            |       |  0.67

Nlocal:    864 ave 864 max 864 min
Histogram: 1 0 0 0 0 0 0 0 0 0
Nghost:    1382 ave 1382 max 1382 min
Histogram: 1 0 0 0 0 0 0 0 0 0
Neighs:    49680 ave 49680 max 49680 min
Histogram: 1 0 0 0 0 0 0 0 0 0

Total # of neighbors = 49680
Ave neighs/atom = 57.5
Neighbor list builds = 0
Dangerous builds = 0

# Obtain new stress tensor

variable tmp equal pe
variable e1 equal ${tmp}
variable e1 equal -2837.26648311331
variable tmp equal press
variable p1 equal ${tmp}
variable p1 equal 22.7710747591146
variable tmp equal pxx
variable pxx1 equal ${tmp}
variable pxx1 equal 26.4831709924546
variable tmp equal pyy
variable pyy1 equal ${tmp}
variable pyy1 equal 41.8300532835163
variable tmp equal pzz
variable pzz1 equal ${tmp}
variable pzz1 equal 1.37295337727786e-09
variable tmp equal pxy
variable pxy1 equal ${tmp}
variable pxy1 equal -262.444863376407
variable tmp equal pxz
variable pxz1 equal ${tmp}
variable pxz1 equal -1.11492385046133e-08
variable tmp equal pyz
variable pyz1 equal ${tmp}
variable pyz1 equal -7.24600866506396e-09

# Compute elastic constant from pressure tensor

variable C1pos equal ${d1}
variable C1pos equal -3515.78262437663
variable C2pos equal ${d2}
variable C2pos equal -3369.86508469327
variable C3pos equal ${d3}
variable C3pos equal 1594.2844520741
variable C4pos equal ${d4}
variable C4pos equal 5367.38151550032
variable C5pos equal ${d5}
variable C5pos equal 5821.92761310991
variable C6pos equal ${d6}
variable C6pos equal -448.369849653301

# Combine positive and negative

variable C1${dir} equal 0.5*(${C1neg}+${C1pos})
variable C16 equal 0.5*(${C1neg}+${C1pos})
variable C16 equal 0.5*(3514.67906667584+${C1pos})
variable C16 equal 0.5*(3514.67906667584+-3515.78262437663)
variable C2${dir} equal 0.5*(${C2neg}+${C2pos})
variable C26 equal 0.5*(${C2neg}+${C2pos})
variable C26 equal 0.5*(3367.8473560293+${C2pos})
variable C26 equal 0.5*(3367.8473560293+-3369.86508469327)
variable C3${dir} equal 0.5*(${C3neg}+${C3pos})
variable C36 equal 0.5*(${C3neg}+${C3pos})
variable C36 equal 0.5*(-1594.2844523485+${C3pos})
variable C36 equal 0.5*(-1594.2844523485+1594.2844520741)
variable C4${dir} equal 0.5*(${C4neg}+${C4pos})
variable C46 equal 0.5*(${C4neg}+${C4pos})
variable C46 equal 0.5*(-5367.38151405135+${C4pos})
variable C46 equal 0.5*(-5367.38151405135+5367.38151550032)
variable C5${dir} equal 0.5*(${C5neg}+${C5pos})
variable C56 equal 0.5*(${C5neg}+${C5pos})
variable C56 equal 0.5*(-5821.92761088041+${C5pos})
variable C56 equal 0.5*(-5821.92761088041+5821.92761310991)
variable C6${dir} equal 0.5*(${C6neg}+${C6pos})
variable C66 equal 0.5*(${C6neg}+${C6pos})
variable C66 equal 0.5*(479.953844468503+${C6pos})
variable C66 equal 0.5*(479.953844468503+-448.369849653301)

# Delete dir to make sure it is not reused

variable dir delete

# Output final values

variable C11all equal ${C11}
variable C11all equal 42.497969175545
variable C22all equal ${C22}
variable C22all equal 42.74129648967
variable C33all equal ${C33}
variable C33all equal 8.09905031928793e-10

variable C12all equal 0.5*(${C12}+${C21})
variable C12all equal 0.5*(14.9563486955851+${C21})
variable C12all equal 0.5*(14.9563486955851+15.0592777911349)
variable C13all equal 0.5*(${C13}+${C31})
variable C13all equal 0.5*(0.00264724305498021+${C31})
variable C13all equal 0.5*(0.00264724305498021+-3.49304968949582e-07)
variable C23all equal 0.5*(${C23}+${C32})
variable C23all equal 0.5*(0.00418322152995643+${C32})
variable C23all equal 0.5*(0.00418322152995643+-3.25080009133671e-07)

variable C44all equal ${C44}
variable C44all equal -9.14951669983566e-10
variable C55all equal ${C55}
variable C55all equal -6.99856173014268e-10
variable C66all equal ${C66}
variable C66all equal 15.791997407601

variable C14all equal 0.5*(${C14}+${C41})
variable C14all equal 0.5*(1.07095002022106e-06+${C41})
variable C14all equal 0.5*(1.07095002022106e-06+4.42654709331691e-07)
variable C15all equal 0.5*(${C15}+${C51})
variable C15all equal 0.5*(4.69435008199071e-07+${C51})
variable C15all equal 0.5*(4.69435008199071e-07+-5.01835074828705e-07)
variable C16all equal 0.5*(${C16}+${C61})
variable C16all equal 0.5*(-0.55177885039484+${C61})
variable C16all equal 0.5*(-0.55177885039484+-2.19139148095201)

variable C24all equal 0.5*(${C24}+${C42})
variable C24all equal 0.5*(5.52324991076603e-07+${C42})
variable C24all equal 0.5*(5.52324991076603e-07+-5.15984993398888e-07)
variable C25all equal 0.5*(${C25}+${C52})
variable C25all equal 0.5*(9.76634964899858e-07+${C52})
variable C25all equal 0.5*(9.76634964899858e-07+3.70700036000926e-07)
variable C26all equal 0.5*(${C26}+${C62})
variable C26all equal 0.5*(-1.00886433198502+${C62})
variable C26all equal 0.5*(-1.00886433198502+-1.00886431569899)

variable C34all equal 0.5*(${C34}+${C43})
variable C34all equal 0.5*(2.46275021709152e-07+${C43})
variable C34all equal 0.5*(2.46275021709152e-07+-8.86810494193924e-06)
variable C35all equal 0.5*(${C35}+${C53})
variable C35all equal 0.5*(2.09829977393383e-07+${C53})
variable C35all equal 0.5*(2.09829977393383e-07+7.81610469857696e-06)
variable C36all equal 0.5*(${C36}+${C63})
variable C36all equal 0.5*(-1.37200004246552e-07+${C63})
variable C36all equal 0.5*(-1.37200004246552e-07+-0.0262284359475018)

variable C45all equal 0.5*(${C45}+${C54})
variable C45all equal 0.5*(-1.39716985358973e-06+${C54})
variable C45all equal 0.5*(-1.39716985358973e-06+-1.50907499119057e-06)
variable C46all equal 0.5*(${C46}+${C64})
variable C46all equal 0.5*(7.24485289538279e-07+${C64})
variable C46all equal 0.5*(7.24485289538279e-07+-1.76499952431186e-08)
variable C56all equal 0.5*(${C56}+${C65})
variable C56all equal 0.5*(1.11475037556374e-06+${C65})
variable C56all equal 0.5*(1.11475037556374e-06+5.83015093980066e-08)

# For Stillinger-Weber silicon, the analytical results
# are known to be (E. R. Cowley, 1988):
#               C11 = 151.4 GPa
#               C12 = 76.4 GPa
#               C44 = 56.4 GPa

print "Elastic Constant C11all = ${C11all} ${cunits}"
Elastic Constant C11all = 42.497969175545 GPa
print "Elastic Constant C22all = ${C22all} ${cunits}"
Elastic Constant C22all = 42.74129648967 GPa
print "Elastic Constant C33all = ${C33all} ${cunits}"
Elastic Constant C33all = 8.09905031928793e-10 GPa

print "Elastic Constant C12all = ${C12all} ${cunits}"
Elastic Constant C12all = 15.00781324336 GPa
print "Elastic Constant C13all = ${C13all} ${cunits}"
Elastic Constant C13all = 0.00132344687500563 GPa
print "Elastic Constant C23all = ${C23all} ${cunits}"
Elastic Constant C23all = 0.00209144822497365 GPa

print "Elastic Constant C44all = ${C44all} ${cunits}"
Elastic Constant C44all = -9.14951669983566e-10 GPa
print "Elastic Constant C55all = ${C55all} ${cunits}"
Elastic Constant C55all = -6.99856173014268e-10 GPa
print "Elastic Constant C66all = ${C66all} ${cunits}"
Elastic Constant C66all = 15.791997407601 GPa

print "Elastic Constant C14all = ${C14all} ${cunits}"
Elastic Constant C14all = 7.56802364776376e-07 GPa
print "Elastic Constant C15all = ${C15all} ${cunits}"
Elastic Constant C15all = -1.6200033314817e-08 GPa
print "Elastic Constant C16all = ${C16all} ${cunits}"
Elastic Constant C16all = -1.37158516567343 GPa

print "Elastic Constant C24all = ${C24all} ${cunits}"
Elastic Constant C24all = 1.81699988388575e-08 GPa
print "Elastic Constant C25all = ${C25all} ${cunits}"
Elastic Constant C25all = 6.73667500450392e-07 GPa
print "Elastic Constant C26all = ${C26all} ${cunits}"
Elastic Constant C26all = -1.008864323842 GPa

print "Elastic Constant C34all = ${C34all} ${cunits}"
Elastic Constant C34all = -4.31091496011504e-06 GPa
print "Elastic Constant C35all = ${C35all} ${cunits}"
Elastic Constant C35all = 4.01296733798517e-06 GPa
print "Elastic Constant C36all = ${C36all} ${cunits}"
Elastic Constant C36all = -0.013114286573753 GPa

print "Elastic Constant C45all = ${C45all} ${cunits}"
Elastic Constant C45all = -1.45312242239015e-06 GPa
print "Elastic Constant C46all = ${C46all} ${cunits}"
Elastic Constant C46all = 3.5341764714758e-07 GPa
print "Elastic Constant C56all = ${C56all} ${cunits}"
Elastic Constant C56all = 5.86525942480873e-07 GPa

Total wall time: 0:00:06
