    2    2    1    1
  0.2044415E+02  0.3866974E-09  0.3866975E-09  0.3866975E-09  0.5000000E-15
  1.000000000000000E-004
  CAR 
 unknown system                          
    8    4    8
 
  0.0000000E+00  0.0000000E+00  0.0000000E+00  0.3703704E-01
   1       -6.067601
   2        5.693717
   3        5.693718
   4        5.693719
   5        8.280192
   6        8.280194
   7        8.280196
   8        8.938258
 
  0.3333333E+00  0.4163336E-16  0.0000000E+00  0.2962963E+00
   1       -4.716440
   2        0.460003
   3        4.720878
   4        4.720880
   5        7.441006
   6        9.215608
   7        9.215611
   8       13.497438
 
  0.3333333E+00  0.3333333E+00  0.0000000E+00  0.2222222E+00
   1       -4.197434
   2        0.754058
   3        3.340499
   4        3.340499
   5        6.474808
   6        7.730521
   7       12.879736
   8       12.879736
 
 -0.3333333E+00  0.3333333E+00  0.0000000E+00  0.4444444E+00
   1       -2.867224
   2       -0.969153
   3        1.397397
   4        3.638240
   5        7.302566
   6       11.462154
   7       12.132303
   8       12.684104
