 running on   16 total cores
 distrk:  each k-point on   16 cores,    1 groups
 distr:  one band on    4 cores,    4 groups
 using from now: INCAR     
 vasp.5.3.3 18Dez12 (build Jan 30 2013 10:57:47) complex                        
  
 POSCAR found type information on POSCAR  Si
 POSCAR found :  1 types and       2 ions

 ----------------------------------------------------------------------------- 
|                                                                             |
|  ADVICE TO THIS USER RUNNING 'VASP/VAMP'   (HEAR YOUR MASTER'S VOICE ...):  |
|                                                                             |
|      You have switched on vdW-DFT.                                          |
|      This routine was written and supplied by Jiri Klimes.                  |
|      We recommed that you carefully read and cite the following             |
|      publication                                                            |
|      J. Klimes, D.R. Bowler, A. Michelides                                  |
|        J. Phys.: Cond Matt. 22 022201 (2010)                                |
|      J. Klimes, D.R. Bowler, A. Michelides                                  |
|        Phys. Rev. B. 83, 195131 (2011)                                      |
|      and references therein.                                                |
|                                                                             |
 ----------------------------------------------------------------------------- 


 ----------------------------------------------------------------------------- 
|                                                                             |
|  ADVICE TO THIS USER RUNNING 'VASP/VAMP'   (HEAR YOUR MASTER'S VOICE ...):  |
|                                                                             |
|      You enforced a specific xc-type in the INCAR file,                     |
|      a different type was found on the POTCAR file                          |
|          I HOPE YOU KNOW, WHAT YOU ARE  DOING                               |
|                                                                             |
 ----------------------------------------------------------------------------- 

 LDA part: xc-table for Pade appr. of Perdew
 POSCAR, INCAR and KPOINTS ok, starting setup
 WARNING: small aliasing (wrap around) errors must be expected
 FFT: planning ...
 WAVECAR not read
 entering main loop
       N       E                     dE             d eps       ncg     rms          rms(c)
Total vdW correction in eV:      1.0792472
DAV:   1     0.138302967815E+02    0.13830E+02   -0.49375E+03    64   0.122E+03
DAV:   2    -0.744593960026E+01   -0.21276E+02   -0.21222E+02    88   0.959E+01
DAV:   3    -0.787488526612E+01   -0.42895E+00   -0.42894E+00   104   0.162E+01
DAV:   4    -0.787540544942E+01   -0.52018E-03   -0.52018E-03    96   0.593E-01
DAV:   5    -0.787540610964E+01   -0.66023E-06   -0.66029E-06    96   0.172E-02    0.400E+00
Total vdW correction in eV:      1.1365142
DAV:   6    -0.778939824159E+01    0.86008E-01   -0.11268E-01    80   0.198E+00    0.247E+00
Total vdW correction in eV:      1.2497285
DAV:   7    -0.776758844661E+01    0.21810E-01   -0.26795E-01    80   0.304E+00    0.214E-01
Total vdW correction in eV:      1.2452300
DAV:   8    -0.774882286692E+01    0.18766E-01   -0.77143E-03    96   0.624E-01    0.109E-01
Total vdW correction in eV:      1.2527679
DAV:   9    -0.775070897959E+01   -0.18861E-02   -0.87959E-04    80   0.199E-01    0.757E-02
Total vdW correction in eV:      1.2525833
DAV:  10    -0.774992325912E+01    0.78572E-03   -0.54752E-05    88   0.611E-02    0.200E-02
Total vdW correction in eV:      1.2525601
DAV:  11    -0.774983232524E+01    0.90934E-04   -0.74372E-07    88   0.723E-03    0.166E-03
Total vdW correction in eV:      1.2526036
DAV:  12    -0.774983870524E+01   -0.63800E-05   -0.11517E-07    80   0.376E-03    0.344E-04
Total vdW correction in eV:      1.2525877
DAV:  13    -0.774983894445E+01   -0.23922E-06   -0.43083E-09    72   0.503E-04    0.117E-04
Total vdW correction in eV:      1.2525881
DAV:  14    -0.774983816492E+01    0.77953E-06   -0.18980E-10    72   0.141E-04    0.318E-05
Total vdW correction in eV:      1.2525878
DAV:  15    -0.774983770276E+01    0.46216E-06   -0.15864E-11    64   0.357E-05    0.643E-06
Total vdW correction in eV:      1.2525879
DAV:  16    -0.774983786039E+01   -0.15764E-06   -0.44012E-12    40   0.965E-06    0.622E-07
Total vdW correction in eV:      1.2525878
DAV:  17    -0.774983786538E+01   -0.49830E-08   -0.83827E-13    32   0.497E-06
Total vdW correction in eV:      1.2525878
Total vdW correction in eV:      1.2525878
   1 F= -.77498379E+01 E0= -.77494487E+01  d E =-.774984E+01
 curvature:   0.00 expect dE= 0.000E+00 dE for cont linesearch  0.000E+00
 trial: gam= 0.00000 g(F)=  0.194E-43 g(S)=  0.000E+00 ort = 0.000E+00 (trialstep = 0.100E+01)
 search vector abs. value=  0.100E-09
 reached required accuracy - stopping structural energy minimisation
