   2   2   0   0
  0.2072484E+02  0.3884592E-09  0.3884592E-09  0.3884592E-09  0.5000000E-15
   1.0000000000000000E-004
  CAR 
 unknown system                          
     30.16751300     -8.19064613  301      5.81251968      1.00000000
     -8.191  0.0000E+00  0.0000E+00
     -8.063  0.0000E+00  0.0000E+00
     -7.935  0.0000E+00  0.0000E+00
     -7.807  0.0000E+00  0.0000E+00
     -7.679  0.0000E+00  0.0000E+00
     -7.551  0.0000E+00  0.0000E+00
     -7.423  0.0000E+00  0.0000E+00
     -7.296  0.8480E-16  0.1084E-16
     -7.168  0.7435E-13  0.9518E-14
     -7.040  0.2914E-10  0.3736E-11
     -6.912  0.5141E-08  0.6611E-09
     -6.784  0.4110E-06  0.5321E-07
     -6.656  0.1509E-04  0.1983E-05
     -6.528  0.2633E-03  0.3565E-04
     -6.401  0.2379E-02  0.3399E-03
     -6.273  0.1309E-01  0.2013E-02
     -6.145  0.4929E-01  0.8316E-02
     -6.017  0.1181E+00  0.2342E-01
     -5.889  0.1681E+00  0.4491E-01
     -5.761  0.1822E+00  0.6821E-01
     -5.633  0.2474E+00  0.9984E-01
     -5.506  0.3627E+00  0.1462E+00
     -5.378  0.3832E+00  0.1952E+00
     -5.250  0.2719E+00  0.2300E+00
     -5.122  0.2611E+00  0.2634E+00
     -4.994  0.4438E+00  0.3201E+00
     -4.866  0.5834E+00  0.3947E+00
     -4.738  0.5487E+00  0.4648E+00
     -4.611  0.5049E+00  0.5294E+00
     -4.483  0.4883E+00  0.5918E+00
     -4.355  0.4438E+00  0.6486E+00
     -4.227  0.5132E+00  0.7142E+00
     -4.099  0.8210E+00  0.8192E+00
     -3.971  0.1022E+01  0.9499E+00
     -3.843  0.8907E+00  0.1064E+01
     -3.716  0.7253E+00  0.1157E+01
     -3.588  0.7207E+00  0.1249E+01
     -3.460  0.7849E+00  0.1349E+01
     -3.332  0.7676E+00  0.1447E+01
     -3.204  0.6489E+00  0.1530E+01
     -3.076  0.5924E+00  0.1606E+01
     -2.948  0.6703E+00  0.1692E+01
     -2.821  0.7240E+00  0.1784E+01
     -2.693  0.5564E+00  0.1855E+01
     -2.565  0.3046E+00  0.1894E+01
     -2.437  0.1497E+00  0.1913E+01
     -2.309  0.1297E+00  0.1930E+01
     -2.181  0.2778E+00  0.1965E+01
     -2.053  0.4228E+00  0.2020E+01
     -1.925  0.3349E+00  0.2062E+01
     -1.798  0.1585E+00  0.2083E+01
     -1.670  0.1238E+00  0.2098E+01
     -1.542  0.2247E+00  0.2127E+01
     -1.414  0.4852E+00  0.2189E+01
     -1.286  0.9194E+00  0.2307E+01
     -1.158  0.1239E+01  0.2465E+01
     -1.030  0.1267E+01  0.2627E+01
     -0.903  0.1064E+01  0.2763E+01
     -0.775  0.8238E+00  0.2868E+01
     -0.647  0.6127E+00  0.2947E+01
     -0.519  0.4345E+00  0.3002E+01
     -0.391  0.5385E+00  0.3071E+01
     -0.263  0.7954E+00  0.3173E+01
     -0.135  0.7450E+00  0.3268E+01
     -0.008  0.4296E+00  0.3323E+01
      0.120  0.2621E+00  0.3357E+01
      0.248  0.2886E+00  0.3394E+01
      0.376  0.3319E+00  0.3436E+01
      0.504  0.3212E+00  0.3477E+01
      0.632  0.3143E+00  0.3517E+01
      0.760  0.2784E+00  0.3553E+01
      0.887  0.2637E+00  0.3587E+01
      1.015  0.3067E+00  0.3626E+01
      1.143  0.3379E+00  0.3669E+01
      1.271  0.4594E+00  0.3728E+01
      1.399  0.6833E+00  0.3815E+01
      1.527  0.9443E+00  0.3936E+01
      1.655  0.1098E+01  0.4076E+01
      1.782  0.9208E+00  0.4194E+01
      1.910  0.6806E+00  0.4281E+01
      2.038  0.8498E+00  0.4390E+01
      2.166  0.1472E+01  0.4578E+01
      2.294  0.1866E+01  0.4816E+01
      2.422  0.1419E+01  0.4998E+01
      2.550  0.8350E+00  0.5105E+01
      2.677  0.8835E+00  0.5218E+01
      2.805  0.1326E+01  0.5387E+01
      2.933  0.1699E+01  0.5604E+01
      3.061  0.1652E+01  0.5816E+01
      3.189  0.1447E+01  0.6001E+01
      3.317  0.1457E+01  0.6187E+01
      3.445  0.1428E+01  0.6370E+01
      3.573  0.1350E+01  0.6542E+01
      3.700  0.1384E+01  0.6719E+01
      3.828  0.1251E+01  0.6879E+01
      3.956  0.1161E+01  0.7027E+01
      4.084  0.1280E+01  0.7191E+01
      4.212  0.1406E+01  0.7371E+01
      4.340  0.1267E+01  0.7533E+01
      4.468  0.8126E+00  0.7637E+01
      4.595  0.5256E+00  0.7704E+01
      4.723  0.5713E+00  0.7777E+01
      4.851  0.5163E+00  0.7843E+01
      4.979  0.2879E+00  0.7880E+01
      5.107  0.2381E+00  0.7910E+01
      5.235  0.3064E+00  0.7949E+01
      5.363  0.2374E+00  0.7980E+01
      5.490  0.1069E+00  0.7993E+01
      5.618  0.3815E-01  0.7998E+01
      5.746  0.1114E-01  0.8000E+01
      5.874  0.3828E-02  0.8000E+01
      6.002  0.1563E-01  0.8002E+01
      6.130  0.6238E-01  0.8010E+01
      6.258  0.1479E+00  0.8029E+01
      6.385  0.2528E+00  0.8061E+01
      6.513  0.3323E+00  0.8104E+01
      6.641  0.3387E+00  0.8147E+01
      6.769  0.3790E+00  0.8196E+01
      6.897  0.5195E+00  0.8262E+01
      7.025  0.6360E+00  0.8343E+01
      7.153  0.6146E+00  0.8422E+01
      7.280  0.5913E+00  0.8498E+01
      7.408  0.9156E+00  0.8615E+01
      7.536  0.1419E+01  0.8796E+01
      7.664  0.1624E+01  0.9004E+01
      7.792  0.1617E+01  0.9210E+01
      7.920  0.1605E+01  0.9415E+01
      8.048  0.1442E+01  0.9600E+01
      8.176  0.1217E+01  0.9755E+01
      8.303  0.1334E+01  0.9926E+01
      8.431  0.1678E+01  0.1014E+02
      8.559  0.1637E+01  0.1035E+02
      8.687  0.1213E+01  0.1050E+02
      8.815  0.1012E+01  0.1063E+02
      8.943  0.1451E+01  0.1082E+02
      9.071  0.2154E+01  0.1110E+02
      9.198  0.2193E+01  0.1138E+02
      9.326  0.1642E+01  0.1159E+02
      9.454  0.1146E+01  0.1173E+02
      9.582  0.1038E+01  0.1186E+02
      9.710  0.1370E+01  0.1204E+02
      9.838  0.1711E+01  0.1226E+02
      9.966  0.1659E+01  0.1247E+02
     10.093  0.1203E+01  0.1262E+02
     10.221  0.8157E+00  0.1273E+02
     10.349  0.8310E+00  0.1284E+02
     10.477  0.1070E+01  0.1297E+02
     10.605  0.1287E+01  0.1314E+02
     10.733  0.1429E+01  0.1332E+02
     10.861  0.1559E+01  0.1352E+02
     10.988  0.1576E+01  0.1372E+02
     11.116  0.1449E+01  0.1391E+02
     11.244  0.1508E+01  0.1410E+02
     11.372  0.1638E+01  0.1431E+02
     11.500  0.1349E+01  0.1448E+02
     11.628  0.9335E+00  0.1460E+02
     11.756  0.7495E+00  0.1470E+02
     11.883  0.6863E+00  0.1478E+02
     12.011  0.6741E+00  0.1487E+02
     12.139  0.5579E+00  0.1494E+02
     12.267  0.4951E+00  0.1500E+02
     12.395  0.6585E+00  0.1509E+02
     12.523  0.8669E+00  0.1520E+02
     12.651  0.1217E+01  0.1535E+02
     12.778  0.1729E+01  0.1558E+02
     12.906  0.1620E+01  0.1578E+02
     13.034  0.1099E+01  0.1592E+02
     13.162  0.1328E+01  0.1609E+02
     13.290  0.2045E+01  0.1636E+02
     13.418  0.2257E+01  0.1664E+02
     13.546  0.2037E+01  0.1690E+02
     13.674  0.1824E+01  0.1714E+02
     13.801  0.1406E+01  0.1732E+02
     13.929  0.8391E+00  0.1742E+02
     14.057  0.5216E+00  0.1749E+02
     14.185  0.4797E+00  0.1755E+02
     14.313  0.7721E+00  0.1765E+02
     14.441  0.1207E+01  0.1781E+02
     14.569  0.1315E+01  0.1797E+02
     14.696  0.1171E+01  0.1812E+02
     14.824  0.9771E+00  0.1825E+02
     14.952  0.9232E+00  0.1837E+02
     15.080  0.1178E+01  0.1852E+02
     15.208  0.1517E+01  0.1871E+02
     15.336  0.1852E+01  0.1895E+02
     15.464  0.2088E+01  0.1921E+02
     15.591  0.1749E+01  0.1944E+02
     15.719  0.1231E+01  0.1960E+02
     15.847  0.1366E+01  0.1977E+02
     15.975  0.1626E+01  0.1998E+02
     16.103  0.1357E+01  0.2015E+02
     16.231  0.1046E+01  0.2029E+02
     16.359  0.1095E+01  0.2043E+02
     16.486  0.1160E+01  0.2057E+02
     16.614  0.9870E+00  0.2070E+02
     16.742  0.8622E+00  0.2081E+02
     16.870  0.1057E+01  0.2095E+02
     16.998  0.1327E+01  0.2111E+02
     17.126  0.1174E+01  0.2126E+02
     17.254  0.9471E+00  0.2139E+02
     17.381  0.1272E+01  0.2155E+02
     17.509  0.1857E+01  0.2179E+02
     17.637  0.2210E+01  0.2207E+02
     17.765  0.2281E+01  0.2236E+02
     17.893  0.2140E+01  0.2263E+02
     18.021  0.2040E+01  0.2289E+02
     18.149  0.1929E+01  0.2314E+02
     18.276  0.1643E+01  0.2335E+02
     18.404  0.1428E+01  0.2353E+02
     18.532  0.1402E+01  0.2371E+02
     18.660  0.1319E+01  0.2388E+02
     18.788  0.1019E+01  0.2401E+02
     18.916  0.7242E+00  0.2410E+02
     19.044  0.7927E+00  0.2421E+02
     19.172  0.1087E+01  0.2435E+02
     19.299  0.1310E+01  0.2451E+02
     19.427  0.1602E+01  0.2472E+02
     19.555  0.1935E+01  0.2496E+02
     19.683  0.1933E+01  0.2521E+02
     19.811  0.1779E+01  0.2544E+02
     19.939  0.1822E+01  0.2567E+02
     20.067  0.1974E+01  0.2592E+02
     20.194  0.2049E+01  0.2619E+02
     20.322  0.1993E+01  0.2644E+02
     20.450  0.1928E+01  0.2669E+02
     20.578  0.1891E+01  0.2693E+02
     20.706  0.1768E+01  0.2716E+02
     20.834  0.1365E+01  0.2733E+02
     20.962  0.1052E+01  0.2747E+02
     21.089  0.1376E+01  0.2764E+02
     21.217  0.1733E+01  0.2786E+02
     21.345  0.1393E+01  0.2804E+02
     21.473  0.9103E+00  0.2816E+02
     21.601  0.9053E+00  0.2827E+02
     21.729  0.1167E+01  0.2842E+02
     21.857  0.1341E+01  0.2859E+02
     21.984  0.1435E+01  0.2878E+02
     22.112  0.1347E+01  0.2895E+02
     22.240  0.1163E+01  0.2910E+02
     22.368  0.1193E+01  0.2925E+02
     22.496  0.1366E+01  0.2942E+02
     22.624  0.1492E+01  0.2962E+02
     22.752  0.1620E+01  0.2982E+02
     22.879  0.1600E+01  0.3003E+02
     23.007  0.1334E+01  0.3020E+02
     23.135  0.1293E+01  0.3036E+02
     23.263  0.1641E+01  0.3057E+02
     23.391  0.2028E+01  0.3083E+02
     23.519  0.2147E+01  0.3111E+02
     23.647  0.1951E+01  0.3136E+02
     23.774  0.1500E+01  0.3155E+02
     23.902  0.1033E+01  0.3168E+02
     24.030  0.6377E+00  0.3176E+02
     24.158  0.3032E+00  0.3180E+02
     24.286  0.1064E+00  0.3181E+02
     24.414  0.4694E-01  0.3182E+02
     24.542  0.5398E-01  0.3183E+02
     24.670  0.9408E-01  0.3184E+02
     24.797  0.2000E+00  0.3186E+02
     24.925  0.2814E+00  0.3190E+02
     25.053  0.2095E+00  0.3193E+02
     25.181  0.8523E-01  0.3194E+02
     25.309  0.2112E-01  0.3194E+02
     25.437  0.1114E-01  0.3194E+02
     25.565  0.3359E-01  0.3195E+02
     25.692  0.6180E-01  0.3195E+02
     25.820  0.5462E-01  0.3196E+02
     25.948  0.3351E-01  0.3197E+02
     26.076  0.5067E-01  0.3197E+02
     26.204  0.8349E-01  0.3198E+02
     26.332  0.6899E-01  0.3199E+02
     26.460  0.2664E-01  0.3200E+02
     26.587  0.4772E-02  0.3200E+02
     26.715  0.3942E-03  0.3200E+02
     26.843  0.1491E-04  0.3200E+02
     26.971  0.2567E-06  0.3200E+02
     27.099  0.2000E-08  0.3200E+02
     27.227  0.7454E-11  0.3200E+02
     27.355  0.1373E-09  0.3200E+02
     27.482  0.1928E-07  0.3200E+02
     27.610  0.1225E-05  0.3200E+02
     27.738  0.3538E-04  0.3200E+02
     27.866  0.4678E-03  0.3200E+02
     27.994  0.2849E-02  0.3200E+02
     28.122  0.8045E-02  0.3200E+02
     28.250  0.1057E-01  0.3200E+02
     28.377  0.6476E-02  0.3200E+02
     28.505  0.1844E-02  0.3200E+02
     28.633  0.2431E-03  0.3200E+02
     28.761  0.1474E-04  0.3200E+02
     28.889  0.4081E-06  0.3200E+02
     29.017  0.5131E-08  0.3200E+02
     29.145  0.2913E-10  0.3200E+02
     29.272  0.7434E-13  0.3200E+02
     29.400  0.8480E-16  0.3200E+02
     29.528  0.0000E+00  0.3200E+02
     29.656  0.0000E+00  0.3200E+02
     29.784  0.0000E+00  0.3200E+02
     29.912  0.0000E+00  0.3200E+02
     30.040  0.0000E+00  0.3200E+02
     30.168  0.0000E+00  0.3200E+02
