    2    2    1    1
  0.2072484E+02  0.3884592E-09  0.3884592E-09  0.3884592E-09  0.5000000E-15
   1.0000000000000000E-004
  CAR 
 unknown system                          
      8     29     16

  0.3742002E-15  0.3742002E-15  0.3742002E-15  0.1953125E-02
    1       -6.190646   1.000000
    2        5.460408   0.993609
    3        5.460408   0.993609
    4        5.460408   0.993609
    5        8.075157   0.000000
    6        8.075157   0.000000
    7        8.075157   0.000000
    8        8.531540   0.000000
    9       13.214769   0.000000
   10       13.214769   0.000000
   11       13.349100   0.000000
   12       16.655930   0.000000
   13       16.655930   0.000000
   14       16.655930   0.000000
   15       20.750993   0.000000
   16       28.167513   0.000000

  0.1250000E+00  0.3816392E-15  0.3816392E-15  0.1562500E-01
    1       -5.992957   1.000000
    2        3.902718   1.000000
    3        5.189120   0.999995
    4        5.189120   0.999995
    5        7.930326   0.000000
    6        8.478812   0.000000
    7        8.478812   0.000000
    8        9.934078   0.000000
    9       12.748102   0.000000
   10       12.748102   0.000000
   11       14.115439   0.000000
   12       16.113523   0.000000
   13       17.786410   0.000000
   14       17.786410   0.000000
   15       21.944062   0.000000
   16       26.172533   0.000000

  0.2500000E+00  0.3885781E-15  0.3885781E-15  0.1562500E-01
    1       -5.417005   1.000000
    2        1.644582   1.000000
    3        4.738556   1.000000
    4        4.738556   1.000000
    5        7.443924   0.000000
    6        8.994781   0.000000
    7        8.994781   0.000000
    8       12.139505   0.000000
    9       12.690038   0.000000
   10       12.690038   0.000000
   11       14.415906   0.000000
   12       17.146365   0.000000
   13       19.939690   0.000000
   14       19.939690   0.000000
   15       23.052492   0.000000
   16       23.066704   0.000000

  0.3750000E+00  0.3608225E-15  0.3608225E-15  0.1562500E-01
    1       -4.556824   1.000000
    2       -0.308137   1.000000
    3        4.421528   1.000000
    4        4.421528   1.000000
    5        7.079908   0.000000
    6        8.973235   0.000000
    7        8.973235   0.000000
    8       13.328061   0.000000
    9       14.009477   0.000000
   10       14.009477   0.000000
   11       14.895803   0.000000
   12       19.025627   0.000000
   13       19.025627   0.000000
   14       19.218368   0.000000
   15       21.782233   0.000000
   16       23.771758   0.000000

  0.5000000E+00  0.3885781E-15  0.3885781E-15  0.7812500E-02
    1       -3.950851   1.000000
    2       -1.287100   1.000000
    3        4.312456   1.000000
    4        4.312456   1.000000
    5        6.951960   0.000000
    6        8.875960   0.000000
    7        8.875960   0.000000
    8       13.214355   0.000000
    9       15.931987   0.000000
   10       15.931987   0.000000
   11       16.543780   0.000000
   12       16.657140   0.000000
   13       16.657140   0.000000
   14       18.055673   0.000000
   15       24.501670   0.000000
   16       25.018885   0.000000

  0.1250000E+00  0.1250000E+00  0.3742002E-15  0.1171875E-01
    1       -5.926292   1.000000
    2        4.121421   1.000000
    3        4.703609   1.000000
    4        4.703609   1.000000
    5        7.542460   0.000000
    6        9.155654   0.000000
    7        9.155654   0.000000
    8        9.628451   0.000000
    9       11.985809   0.000000
   10       13.510213   0.000000
   11       14.405525   0.000000
   12       17.117694   0.000000
   13       17.117694   0.000000
   14       17.599059   0.000000
   15       22.509544   0.000000
   16       25.667369   0.000000

  0.2500000E+00  0.1250000E+00  0.3747003E-15  0.4687500E-01
    1       -5.472743   1.000000
    2        2.306258   1.000000
    3        4.212846   1.000000
    4        4.271198   1.000000
    5        7.660095   0.000000
    6        9.090457   0.000000
    7        9.902082   0.000000
    8       10.239522   0.000000
    9       12.769261   0.000000
   10       13.665563   0.000000
   11       15.395013   0.000000
   12       16.960107   0.000000
   13       18.489558   0.000000
   14       19.729054   0.000000
   15       22.778372   0.000000
   16       23.197716   0.000000

  0.3750000E+00  0.1250000E+00  0.3747003E-15  0.4687500E-01
    1       -4.686551   1.000000
    2        0.319548   1.000000
    3        3.699683   1.000000
    4        3.951539   1.000000
    5        7.732674   0.000000
    6        9.078855   0.000000
    7        9.934811   0.000000
    8       10.928704   0.000000
    9       14.734843   0.000000
   10       14.735976   0.000000
   11       15.193997   0.000000
   12       18.677533   0.000000
   13       18.681839   0.000000
   14       20.415705   0.000000
   15       21.959285   0.000000
   16       22.788592   0.000000

  0.5000000E+00  0.1250000E+00  0.3885781E-15  0.4687500E-01
    1       -3.863975   1.000000
    2       -1.084284   1.000000
    3        3.271630   1.000000
    4        3.970674   1.000000
    5        7.663389   0.000000
    6        8.986303   0.000000
    7        9.603323   0.000000
    8       12.767980   0.000000
    9       14.418414   0.000000
   10       15.853919   0.000000
   11       16.808650   0.000000
   12       16.971684   0.000000
   13       17.675366   0.000000
   14       20.179011   0.000000
   15       23.445259   0.000000
   16       24.854618   0.000000

 -0.3750000E+00  0.1250000E+00  0.3885781E-15  0.4687500E-01
    1       -4.096035   1.000000
    2       -0.730352   1.000000
    3        3.102083   1.000000
    4        4.251585   1.000000
    5        7.803501   0.000000
    6        9.107715   0.000000
    7        9.379568   0.000000
    8       13.275586   0.000000
    9       13.530683   0.000000
   10       14.587434   0.000000
   11       16.519294   0.000000
   12       17.654729   0.000000
   13       19.527156   0.000000
   14       19.824228   0.000000
   15       22.051432   0.000000
   16       23.844446   0.000000

 -0.2500000E+00  0.1250000E+00  0.3608225E-15  0.4687500E-01
    1       -4.981788   1.000000
    2        0.954560   1.000000
    3        3.257952   1.000000
    4        4.719896   1.000000
    5        8.137593   0.000000
    6        9.171953   0.000000
    7        9.322691   0.000000
    8       11.663203   0.000000
    9       11.982225   0.000000
   10       15.187798   0.000000
   11       15.388601   0.000000
   12       17.738100   0.000000
   13       19.254975   0.000000
   14       20.714473   0.000000
   15       21.619194   0.000000
   16       23.108125   0.000000

 -0.1250000E+00  0.1250000E+00  0.3885781E-15  0.2343750E-01
    1       -5.667532   1.000000
    2        2.828186   1.000000
    3        3.926521   1.000000
    4        5.177815   0.999996
    5        8.448269   0.000000
    6        8.621332   0.000000
    7        8.807205   0.000000
    8       10.862804   0.000000
    9       11.876208   0.000000
   10       13.432328   0.000000
   11       15.105388   0.000000
   12       16.597548   0.000000
   13       17.737198   0.000000
   14       19.792120   0.000000
   15       22.868138   0.000000
   16       23.383333   0.000000

  0.2500000E+00  0.2500000E+00  0.3742002E-15  0.1171875E-01
    1       -5.142948   1.000000
    2        1.982911   1.000000
    3        3.665871   1.000000
    4        3.665871   1.000000
    5        6.692174   0.000000
    6        8.662832   0.000000
    7       11.136919   0.000000
    8       11.136919   0.000000
    9       13.242663   0.000000
   10       14.394835   0.000000
   11       16.728845   0.000000
   12       18.365211   0.000000
   13       18.365211   0.000000
   14       19.098833   0.000000
   15       22.559721   0.000000
   16       22.559721   0.000000

  0.3750000E+00  0.2500000E+00  0.3816392E-15  0.4687500E-01
    1       -4.456770   1.000000
    2        0.610013   1.000000
    3        2.918979   1.000000
    4        3.358116   1.000000
    5        6.907316   0.000000
    6        8.430272   0.000000
    7       11.346024   0.000000
    8       11.662378   0.000000
    9       15.318913   0.000000
   10       15.391994   0.000000
   11       16.979701   0.000000
   12       18.490538   0.000000
   13       19.070323   0.000000
   14       20.051293   0.000000
   15       21.189078   0.000000
   16       22.358998   0.000000

  0.5000000E+00  0.2500000E+00  0.3747003E-15  0.4687500E-01
    1       -3.567661   1.000000
    2       -0.771076   1.000000
    3        2.087974   1.000000
    4        3.358717   1.000000
    5        7.082011   0.000000
    6        9.926102   0.000000
    7       11.084973   0.000000
    8       11.354912   0.000000
    9       15.500562   0.000000
   10       15.893518   0.000000
   11       17.478240   0.000000
   12       17.863967   0.000000
   13       18.303821   0.000000
   14       22.021770   0.000000
   15       22.953671   0.000000
   16       23.661417   0.000000

 -0.3750000E+00  0.2500000E+00  0.3885781E-15  0.4687500E-01
    1       -3.375506   1.000000
    2       -1.014766   1.000000
    3        1.650483   1.000000
    4        3.662276   1.000000
    5        7.389898   0.000000
    6       10.847634   0.000000
    7       10.931378   0.000000
    8       12.340753   0.000000
    9       13.316694   0.000000
   10       13.417205   0.000000
   11       17.937818   0.000000
   12       20.077441   0.000000
   13       20.215200   0.000000
   14       21.182153   0.000000
   15       21.640703   0.000000
   16       23.534657   0.000000

 -0.2500000E+00  0.2500000E+00  0.3608225E-15  0.2343750E-01
    1       -4.216638   1.000000
    2        0.097889   1.000000
    3        1.890536   1.000000
    4        4.194698   1.000000
    5        7.955716   0.000000
    6       10.241771   0.000000
    7       10.527748   0.000000
    8       11.494900   0.000000
    9       11.954733   0.000000
   10       14.951811   0.000000
   11       17.923050   0.000000
   12       18.419639   0.000000
   13       18.771841   0.000000
   14       21.907764   0.000000
   15       22.264839   0.000000
   16       22.489082   0.000000

  0.3750000E+00  0.3750000E+00  0.3742002E-15  0.1171875E-01
    1       -3.873046   1.000000
    2       -0.178519   1.000000
    3        2.974546   1.000000
    4        2.974546   1.000000
    5        6.201457   0.002978
    6        7.127369   0.000000
    7       13.355282   0.000000
    8       13.355282   0.000000
    9       15.813622   0.000000
   10       15.863099   0.000000
   11       18.265959   0.000000
   12       18.265959   0.000000
   13       18.836978   0.000000
   14       20.492235   0.000000
   15       21.299732   0.000000
   16       22.098276   0.000000

  0.5000000E+00  0.3750000E+00  0.3885781E-15  0.4687500E-01
    1       -3.007675   1.000000
    2       -1.229236   1.000000
    3        2.193211   1.000000
    4        2.900230   1.000000
    5        6.482170   0.000001
    6        7.515767   0.000000
    7       13.612855   0.000000
    8       13.639461   0.000000
    9       16.005841   0.000000
   10       16.138879   0.000000
   11       17.653663   0.000000
   12       17.957541   0.000000
   13       20.076774   0.000000
   14       20.218338   0.000000
   15       21.231753   0.000000
   16       23.944790   0.000000

 -0.3750000E+00  0.3750000E+00  0.2775558E-15  0.2343750E-01
    1       -2.595471   1.000000
    2       -1.605960   1.000000
    3        1.372610   1.000000
    4        3.147015   1.000000
    5        6.781656   0.000000
    6        9.607136   0.000000
    7       12.838782   0.000000
    8       13.325794   0.000000
    9       13.499631   0.000000
   10       13.939118   0.000000
   11       19.830747   0.000000
   12       20.168131   0.000000
   13       20.679987   0.000000
   14       20.939764   0.000000
   15       21.121061   0.000000
   16       22.170027   0.000000

  0.5000000E+00  0.5000000E+00  0.3742002E-15  0.5859375E-02
    1       -2.181394   1.000000
    2       -2.181394   1.000000
    3        2.737091   1.000000
    4        2.737091   1.000000
    5        6.307250   0.000234
    6        6.307250   0.000234
    7       15.332239   0.000000
    8       15.332239   0.000000
    9       16.297819   0.000000
   10       16.297819   0.000000
   11       17.903382   0.000000
   12       17.903382   0.000000
   13       18.123710   0.000000
   14       18.123710   0.000000
   15       24.101890   0.000000
   16       24.101890   0.000000

  0.3750000E+00  0.2500000E+00  0.1250000E+00  0.4687500E-01
    1       -4.904465   1.000000
    2        1.251155   1.000000
    3        2.885924   1.000000
    4        4.101563   1.000000
    5        7.954675   0.000000
    6        9.301953   0.000000
    7        9.716455   0.000000
    8       10.894282   0.000000
    9       13.168244   0.000000
   10       15.504148   0.000000
   11       16.397608   0.000000
   12       17.509321   0.000000
   13       19.149957   0.000000
   14       20.357972   0.000000
   15       21.097308   0.000000
   16       23.361758   0.000000

  0.5000000E+00  0.2500000E+00  0.1250000E+00  0.9375000E-01
    1       -4.049166   1.000000
    2       -0.240946   1.000000
    3        2.288808   1.000000
    4        3.628380   1.000000
    5        8.370218   0.000000
    6        9.027140   0.000000
    7       10.464936   0.000000
    8       11.335784   0.000000
    9       14.368325   0.000000
   10       15.060331   0.000000
   11       17.356474   0.000000
   12       18.111096   0.000000
   13       19.461170   0.000000
   14       20.390945   0.000000
   15       22.495969   0.000000
   16       23.309140   0.000000

 -0.3750000E+00  0.2500000E+00  0.1250000E+00  0.4687500E-01
    1       -3.428183   1.000000
    2       -1.140734   1.000000
    3        2.156654   1.000000
    4        3.411537   1.000000
    5        8.513191   0.000000
    6        8.667559   0.000000
    7       11.307081   0.000000
    8       12.523311   0.000000
    9       12.764049   0.000000
   10       15.947247   0.000000
   11       16.960471   0.000000
   12       17.706032   0.000000
   13       20.609480   0.000000
   14       20.755208   0.000000
   15       23.258275   0.000000
   16       23.642038   0.000000

  0.5000000E+00  0.3750000E+00  0.1250000E+00  0.4687500E-01
    1       -3.683610   1.000000
    2       -0.390698   1.000000
    3        2.261889   1.000000
    4        2.841107   1.000000
    5        7.478164   0.000000
    6        8.186647   0.000000
    7       11.143965   0.000000
    8       13.308271   0.000000
    9       15.473936   0.000000
   10       15.528291   0.000000
   11       18.050510   0.000000
   12       18.573486   0.000000
   13       19.472477   0.000000
   14       19.958542   0.000000
   15       21.878693   0.000000
   16       22.288339   0.000000

 -0.3750000E+00  0.3750000E+00  0.1250000E+00  0.9375000E-01
    1       -2.845930   1.000000
    2       -1.323283   1.000000
    3        1.598153   1.000000
    4        2.650144   1.000000
    5        7.916542   0.000000
    6        9.763313   0.000000
    7       10.684043   0.000000
    8       12.801768   0.000000
    9       13.729085   0.000000
   10       16.356524   0.000000
   11       17.467058   0.000000
   12       19.615541   0.000000
   13       20.565274   0.000000
   14       21.115445   0.000000
   15       22.777007   0.000000
   16       23.573170   0.000000

 -0.2500000E+00  0.3750000E+00  0.1250000E+00  0.4687500E-01
    1       -3.184140   1.000000
    2       -0.970206   1.000000
    3        1.439770   1.000000
    4        3.007988   1.000000
    5        8.377304   0.000000
    6        9.997528   0.000000
    7       10.647471   0.000000
    8       12.420897   0.000000
    9       13.190187   0.000000
   10       14.577133   0.000000
   11       19.316326   0.000000
   12       19.569596   0.000000
   13       19.886572   0.000000
   14       21.408225   0.000000
   15       21.708437   0.000000
   16       23.453822   0.000000

 -0.3750000E+00  0.5000000E+00  0.1250000E+00  0.2343750E-01
    1       -2.110563   1.000000
    2       -2.110563   1.000000
    3        2.211946   1.000000
    4        2.211946   1.000000
    5        7.514415   0.000000
    6        7.514415   0.000000
    7       13.191533   0.000000
    8       13.191533   0.000000
    9       15.843912   0.000000
   10       15.843912   0.000000
   11       18.117236   0.000000
   12       18.117236   0.000000
   13       20.719425   0.000000
   14       20.719425   0.000000
   15       22.653557   0.000000
   16       22.653557   0.000000

 -0.2500000E+00  0.5000000E+00  0.2500000E+00  0.1171875E-01
    1       -2.033205   1.000000
    2       -2.033205   1.000000
    3        1.803084   1.000000
    4        1.803084   1.000000
    5        9.765144   0.000000
    6        9.765144   0.000000
    7       10.408314   0.000000
    8       10.408314   0.000000
    9       15.841038   0.000000
   10       15.841038   0.000000
   11       18.256910   0.000000
   12       18.256910   0.000000
   13       21.741219   0.000000
   14       21.741219   0.000000
   15       23.781635   0.000000
   16       23.783303   0.000000
