       N       E                     dE             d eps       ncg     rms          rms(c)
DAV:   1     0.322615805679E+01    0.32262E+01   -0.35255E+03   928   0.395E+02
DAV:   2    -0.832648619192E+01   -0.11553E+02   -0.11399E+02  1360   0.399E+01
DAV:   3    -0.840605119355E+01   -0.79565E-01   -0.79565E-01  1072   0.433E+00
DAV:   4    -0.840630500443E+01   -0.25381E-03   -0.25381E-03  1712   0.271E-01
DAV:   5    -0.840630501248E+01   -0.80568E-08   -0.75983E-08  1056   0.145E-03    0.367E+00
DAV:   6    -0.835647050417E+01    0.49835E-01   -0.84964E-02  1344   0.860E-01    0.225E+00
DAV:   7    -0.835042988989E+01    0.60406E-02   -0.19444E-01  1392   0.128E+00    0.186E-01
DAV:   8    -0.833399256997E+01    0.16437E-01   -0.49067E-03  1056   0.242E-01    0.955E-02
DAV:   9    -0.833511123192E+01   -0.11187E-02   -0.55813E-04  1408   0.824E-02    0.524E-02
DAV:  10    -0.833511052053E+01    0.71139E-06   -0.23720E-05  1120   0.213E-02    0.918E-03
DAV:  11    -0.833493264763E+01    0.17787E-03   -0.31599E-07  1568   0.270E-03    0.168E-03
DAV:  12    -0.833492308521E+01    0.95624E-05   -0.71186E-08  1104   0.138E-03    0.432E-04
DAV:  13    -0.833492029360E+01    0.27916E-05   -0.50608E-09  1088   0.318E-04    0.731E-05
DAV:  14    -0.833492080225E+01   -0.50864E-06   -0.20441E-10   576   0.707E-05    0.306E-06
DAV:  15    -0.833492059641E+01    0.20584E-06   -0.11255E-11   656   0.141E-05    0.327E-06
DAV:  16    -0.833492058053E+01    0.15878E-07   -0.40116E-12   560   0.608E-06
   1 F= -.83349206E+01 E0= -.83348890E+01  d E =-.833492E+01
