 vasp.5.4.1 24Jun15 (build Feb  9 2019 14:16:27) complex                         
 executed on           IFC91_ompi date 2020.09.26  22:28:50
 running on   16 total cores
 distrk:  each k-point on   16 cores,    1 groups
 distr:  one band on NCORES_PER_BAND=   1 cores,   16 groups


--------------------------------------------------------------------------------------------------------


 INCAR:
 POTCAR:    PAW_PBE Si 05Jan2001                  

 ----------------------------------------------------------------------------- 
|                                                                             |
|           W    W    AA    RRRRR   N    N  II  N    N   GGGG   !!!           |
|           W    W   A  A   R    R  NN   N  II  NN   N  G    G  !!!           |
|           W    W  A    A  R    R  N N  N  II  N N  N  G       !!!           |
|           W WW W  AAAAAA  RRRRR   N  N N  II  N  N N  G  GGG   !            |
|           WW  WW  A    A  R   R   N   NN  II  N   NN  G    G                |
|           W    W  A    A  R    R  N    N  II  N    N   GGGG   !!!           |
|                                                                             |
|      For optimal performance we recommend to set                            |
|        NCORE= 4 - approx SQRT( number of cores)                             |
|      NCORE specifies how many cores store one orbital (NPAR=cpu/NCORE).     |
|      This setting can  greatly improve the performance of VASP for DFT.     |
|      The default, NPAR=number of cores might be grossly inefficient         |
|      on modern multi-core architectures or massively parallel machines.     |
|      Do your own testing !!!!                                               |
|      Unfortunately you need to use the default for GW and RPA calculations. |
|      (for HF NCORE is supported but not extensively tested yet)             |
|                                                                             |
 ----------------------------------------------------------------------------- 


 ----------------------------------------------------------------------------- 
|                                                                             |
|  ADVICE TO THIS USER RUNNING 'VASP/VAMP'   (HEAR YOUR MASTER'S VOICE ...):  |
|                                                                             |
|      You have switched on vdW-DFT.                                          |
|      This routine was written and supplied by Jiri Klimes.                  |
|      We recommed that you carefully read and cite the following             |
|      publication                                                            |
|      J. Klimes, D.R. Bowler, A. Michelides                                  |
|        J. Phys.: Cond Matt. 22 022201 (2010)                                |
|      J. Klimes, D.R. Bowler, A. Michelides                                  |
|        Phys. Rev. B. 83, 195131 (2011)                                      |
|      and references therein.                                                |
|                                                                             |
 ----------------------------------------------------------------------------- 

 POTCAR:    PAW_PBE Si 05Jan2001                  
   VRHFIN =Si: s2p2                                                             
   LEXCH  = PE                                                                  
   EATOM  =   103.0669 eV,    7.5752 Ry                                         
                                                                                
   TITEL  = PAW_PBE Si 05Jan2001                                                
   LULTRA =        F    use ultrasoft PP ?                                      
   IUNSCR =        1    unscreen: 0-lin 1-nonlin 2-no                           
   RPACOR =    1.500    partial core radius                                     
   POMASS =   28.085; ZVAL   =    4.000    mass and valenz                      
   RCORE  =    1.900    outmost cutoff radius                                   
   RWIGS  =    2.480; RWIGS  =    1.312    wigner-seitz radius (au A)           
   ENMAX  =  245.345; ENMIN  =  184.009 eV                                      
   ICORE  =        2    local potential                                         
   LCOR   =        T    correct aug charges                                     
   LPAW   =        T    paw PP                                                  
   EAUG   =  322.069                                                            
   DEXC   =    0.000                                                            
   RMAX   =    1.950    core radius for proj-oper                               
   RAUG   =    1.300    factor for augmentation sphere                          
   RDEP   =    1.993    radius for radial grids                                 
   RDEPT  =    1.837    core radius for aug-charge                              
                                                                                
   Atomic configuration                                                         
    6 entries                                                                   
     n  l   j            E        occ.                                          
     1  0  0.50     -1785.8828   2.0000                                         
     2  0  0.50      -139.4969   2.0000                                         
     2  1  1.50       -95.5546   6.0000                                         
     3  0  0.50       -10.8127   2.0000                                         
     3  1  0.50        -4.0811   2.0000                                         
     3  2  1.50        -4.0817   0.0000                                         
   Description                                                                  
     l       E           TYP  RCUT    TYP  RCUT                                 
     0    -10.8127223     23  1.900                                             
     0     -7.6451159     23  1.900                                             
     1     -4.0811372     23  1.900                                             
     1      2.4879257     23  1.900                                             
     2     -4.0817478      7  1.900                                             
  local pseudopotential read in
  partial core-charges read in
  partial kinetic energy density read in
  atomic valenz-charges read in
  non local Contribution for L=           0  read in
    real space projection operators read in
  non local Contribution for L=           0  read in
    real space projection operators read in
  non local Contribution for L=           1  read in
    real space projection operators read in
  non local Contribution for L=           1  read in
    real space projection operators read in
    PAW grid and wavefunctions read in

   number of l-projection  operators is LMAX  =           4
   number of lm-projection operators is LMMAX =           8


 ----------------------------------------------------------------------------- 
|                                                                             |
|  ADVICE TO THIS USER RUNNING 'VASP/VAMP'   (HEAR YOUR MASTER'S VOICE ...):  |
|                                                                             |
|      You enforced a specific xc-type in the INCAR file,                     |
|      a different type was found on the POTCAR file                          |
|          I HOPE YOU KNOW, WHAT YOU ARE  DOING                               |
|                                                                             |
 ----------------------------------------------------------------------------- 

  PAW_PBE Si 05Jan2001                  :
 energy of atom  1       EATOM= -103.0669
 kinetic energy error for atom=    0.0006 (will be added to EATOM!!)


 POSCAR: bulk@JVASP-1002                         
  positions in direct lattice
  No initial velocities read in
 exchange correlation table for  LEXCH =       42
   RHO(1)=    0.500       N(1)  =     2000
   RHO(2)=  100.500       N(2)  =     4000



--------------------------------------------------------------------------------------------------------


 ion  position               nearest neighbor table
   1  0.750  0.750  0.750-   2 2.38   2 2.38   2 2.38   2 2.38
   2  0.500  0.500  0.500-   1 2.38   1 2.38   1 2.38   1 2.38

  LATTYP: Found a face centered cubic cell.
 ALAT       =     5.4936422752
  
  Lattice vectors:
  
 A1 = (   0.0000000000,   2.7468211376,   2.7468211376)
 A2 = (   2.7468211376,   0.0000000000,   2.7468211376)
 A3 = (   2.7468211376,   2.7468211376,   0.0000000000)


Analysis of symmetry for initial positions (statically):
=====================================================================
 Subroutine PRICEL returns:
 Original cell was already a primitive cell.
 

 Routine SETGRP: Setting up the symmetry group for a 
 face centered cubic supercell.


 Subroutine GETGRP returns: Found 48 space group operations
 (whereof 24 operations were pure point group operations)
 out of a pool of 48 trial point group operations.


The static configuration has the point symmetry T_d .
 The point group associated with its full space group is O_h .


Analysis of symmetry for dynamics (positions and initial velocities):
=====================================================================
 Subroutine PRICEL returns:
 Original cell was already a primitive cell.
 

 Routine SETGRP: Setting up the symmetry group for a 
 face centered cubic supercell.


 Subroutine GETGRP returns: Found 48 space group operations
 (whereof 24 operations were pure point group operations)
 out of a pool of 48 trial point group operations.


The dynamic configuration has the point symmetry T_d .
 The point group associated with its full space group is O_h .


 KPOINTS: Automatic kpoint scheme                 

Automatic generation of k-mesh.
Space group operators:
 irot       det(A)        alpha          n_x          n_y          n_z        tau_x        tau_y        tau_z
    1     1.000000     0.000000     1.000000     0.000000     0.000000     0.000000     0.000000     0.000000
    2     1.000000   120.000000    -0.577350    -0.577350    -0.577350     0.000000     0.000000     0.000000
    3     1.000000   120.000000     0.577350     0.577350     0.577350     0.000000     0.000000     0.000000
    4    -1.000000    90.000000     0.000000     0.000000    -1.000000     0.000000     0.000000     0.000000
    5    -1.000000   180.000000     0.000000     0.707107     0.707107     0.000000     0.000000     0.000000
    6    -1.000000    90.000000     0.000000     1.000000     0.000000     0.000000     0.000000     0.000000
    7     1.000000   180.000000     0.000000     0.000000     1.000000     0.000000     0.000000     0.000000
    8     1.000000   120.000000    -0.577350     0.577350     0.577350     0.000000     0.000000     0.000000
    9     1.000000   120.000000    -0.577350     0.577350    -0.577350     0.000000     0.000000     0.000000
   10    -1.000000    90.000000     0.000000     0.000000     1.000000     0.000000     0.000000     0.000000
   11    -1.000000    90.000000    -1.000000     0.000000     0.000000     0.000000     0.000000     0.000000
   12    -1.000000   180.000000     0.707107     0.000000     0.707107     0.000000     0.000000     0.000000
   13     1.000000   120.000000     0.577350    -0.577350     0.577350     0.000000     0.000000     0.000000
   14     1.000000   120.000000    -0.577350    -0.577350     0.577350     0.000000     0.000000     0.000000
   15     1.000000   180.000000     1.000000     0.000000     0.000000     0.000000     0.000000     0.000000
   16    -1.000000    90.000000     0.000000    -1.000000     0.000000     0.000000     0.000000     0.000000
   17    -1.000000   180.000000     0.707107     0.707107     0.000000     0.000000     0.000000     0.000000
   18    -1.000000    90.000000     1.000000     0.000000     0.000000     0.000000     0.000000     0.000000
   19     1.000000   120.000000     0.577350    -0.577350    -0.577350     0.000000     0.000000     0.000000
   20     1.000000   180.000000     0.000000     1.000000     0.000000     0.000000     0.000000     0.000000
   21     1.000000   120.000000     0.577350     0.577350    -0.577350     0.000000     0.000000     0.000000
   22    -1.000000   180.000000     0.000000    -0.707107     0.707107     0.000000     0.000000     0.000000
   23    -1.000000   180.000000     0.707107    -0.707107     0.000000     0.000000     0.000000     0.000000
   24    -1.000000   180.000000     0.707107     0.000000    -0.707107     0.000000     0.000000     0.000000
   25    -1.000000     0.000000     1.000000     0.000000     0.000000     0.250000     0.250000     0.250000
   26    -1.000000   120.000000    -0.577350    -0.577350    -0.577350     0.250000     0.250000     0.250000
   27    -1.000000   120.000000     0.577350     0.577350     0.577350     0.250000     0.250000     0.250000
   28     1.000000    90.000000     0.000000     0.000000    -1.000000     0.250000     0.250000     0.250000
   29     1.000000   180.000000     0.000000     0.707107     0.707107     0.250000     0.250000     0.250000
   30     1.000000    90.000000     0.000000     1.000000     0.000000     0.250000     0.250000     0.250000
   31    -1.000000   180.000000     0.000000     0.000000     1.000000     0.250000     0.250000     0.250000
   32    -1.000000   120.000000    -0.577350     0.577350     0.577350     0.250000     0.250000     0.250000
   33    -1.000000   120.000000    -0.577350     0.577350    -0.577350     0.250000     0.250000     0.250000
   34     1.000000    90.000000     0.000000     0.000000     1.000000     0.250000     0.250000     0.250000
   35     1.000000    90.000000    -1.000000     0.000000     0.000000     0.250000     0.250000     0.250000
   36     1.000000   180.000000     0.707107     0.000000     0.707107     0.250000     0.250000     0.250000
   37    -1.000000   120.000000     0.577350    -0.577350     0.577350     0.250000     0.250000     0.250000
   38    -1.000000   120.000000    -0.577350    -0.577350     0.577350     0.250000     0.250000     0.250000
   39    -1.000000   180.000000     1.000000     0.000000     0.000000     0.250000     0.250000     0.250000
   40     1.000000    90.000000     0.000000    -1.000000     0.000000     0.250000     0.250000     0.250000
   41     1.000000   180.000000     0.707107     0.707107     0.000000     0.250000     0.250000     0.250000
   42     1.000000    90.000000     1.000000     0.000000     0.000000     0.250000     0.250000     0.250000
   43    -1.000000   120.000000     0.577350    -0.577350    -0.577350     0.250000     0.250000     0.250000
   44    -1.000000   180.000000     0.000000     1.000000     0.000000     0.250000     0.250000     0.250000
   45    -1.000000   120.000000     0.577350     0.577350    -0.577350     0.250000     0.250000     0.250000
   46     1.000000   180.000000     0.000000    -0.707107     0.707107     0.250000     0.250000     0.250000
   47     1.000000   180.000000     0.707107    -0.707107     0.000000     0.250000     0.250000     0.250000
   48     1.000000   180.000000     0.707107     0.000000    -0.707107     0.250000     0.250000     0.250000
 
 Subroutine IBZKPT returns following result:
 ===========================================
 
 Found     29 irreducible k-points:
 
 Following reciprocal coordinates:
            Coordinates               Weight
  0.000000  0.000000  0.000000      1.000000
  0.125000  0.000000  0.000000      8.000000
  0.250000  0.000000  0.000000      8.000000
  0.375000  0.000000  0.000000      8.000000
  0.500000  0.000000  0.000000      4.000000
  0.125000  0.125000  0.000000      6.000000
  0.250000  0.125000  0.000000     24.000000
  0.375000  0.125000  0.000000     24.000000
  0.500000  0.125000  0.000000     24.000000
 -0.375000  0.125000  0.000000     24.000000
 -0.250000  0.125000  0.000000     24.000000
 -0.125000  0.125000  0.000000     12.000000
  0.250000  0.250000  0.000000      6.000000
  0.375000  0.250000  0.000000     24.000000
  0.500000  0.250000  0.000000     24.000000
 -0.375000  0.250000  0.000000     24.000000
 -0.250000  0.250000  0.000000     12.000000
  0.375000  0.375000  0.000000      6.000000
  0.500000  0.375000  0.000000     24.000000
 -0.375000  0.375000  0.000000     12.000000
  0.500000  0.500000  0.000000      3.000000
  0.375000  0.250000  0.125000     24.000000
  0.500000  0.250000  0.125000     48.000000
 -0.375000  0.250000  0.125000     24.000000
  0.500000  0.375000  0.125000     24.000000
 -0.375000  0.375000  0.125000     48.000000
 -0.250000  0.375000  0.125000     24.000000
 -0.375000  0.500000  0.125000     12.000000
 -0.250000  0.500000  0.250000      6.000000
 
 Following cartesian coordinates:
            Coordinates               Weight
  0.000000  0.000000  0.000000      1.000000
 -0.022754  0.022754  0.022754      8.000000
 -0.045507  0.045507  0.045507      8.000000
 -0.068261  0.068261  0.068261      8.000000
 -0.091014  0.091014  0.091014      4.000000
  0.000000  0.000000  0.045507      6.000000
 -0.022754  0.022754  0.068261     24.000000
 -0.045507  0.045507  0.091014     24.000000
 -0.068261  0.068261  0.113768     24.000000
  0.091014 -0.091014 -0.045507     24.000000
  0.068261 -0.068261 -0.022754     24.000000
  0.045507 -0.045507  0.000000     12.000000
  0.000000  0.000000  0.091014      6.000000
 -0.022754  0.022754  0.113768     24.000000
 -0.045507  0.045507  0.136521     24.000000
  0.113768 -0.113768 -0.022754     24.000000
  0.091014 -0.091014  0.000000     12.000000
  0.000000  0.000000  0.136521      6.000000
 -0.022754  0.022754  0.159275     24.000000
  0.136521 -0.136521  0.000000     12.000000
  0.000000  0.000000  0.182029      3.000000
  0.000000  0.045507  0.091014     24.000000
 -0.022754  0.068261  0.113768     48.000000
  0.136521 -0.091014 -0.045507     24.000000
  0.000000  0.045507  0.136521     24.000000
  0.159275 -0.113768 -0.022754     48.000000
  0.136521 -0.091014  0.000000     24.000000
  0.182029 -0.136521  0.000000     12.000000
  0.182029 -0.091014  0.000000      6.000000
 


--------------------------------------------------------------------------------------------------------




 Dimension of arrays:
   k-points           NKPTS =       29   k-points in BZ     NKDIM =       29   number of bands    NBANDS=     16
   number of dos      NEDOS =    301   number of ions     NIONS =      2
   non local maximal  LDIM  =      4   non local SUM 2l+1 LMDIM =      8
   total plane-waves  NPLWV =  21952
   max r-space proj   IRMAX =      1   max aug-charges    IRDMAX=  17905
   dimension x,y,z NGX =    28 NGY =   28 NGZ =   28
   dimension x,y,z NGXF=    56 NGYF=   56 NGZF=   56
   support grid    NGXF=    56 NGYF=   56 NGZF=   56
   ions per type =               2
 NGX,Y,Z   is equivalent  to a cutoff of  11.98, 11.98, 11.98 a.u.
 NGXF,Y,Z  is equivalent  to a cutoff of  23.97, 23.97, 23.97 a.u.


 I would recommend the setting:
   dimension x,y,z NGX =    28 NGY =   28 NGZ =   28
 SYSTEM =  unknown system                          
 POSCAR =  bulk@JVASP-1002                         

 Startparameter for this run:
   NWRITE =      2    write-flag & timer
   PREC   = accura    normal or accurate (medium, high low for compatibility)
   ISTART =      0    job   : 0-new  1-cont  2-samecut
   ICHARG =      2    charge: 1-file 2-atom 10-const
   ISPIN  =      1    spin polarized calculation?
   LNONCOLLINEAR =      F non collinear calculations
   LSORBIT =      F    spin-orbit coupling
   INIWAV =      1    electr: 0-lowe 1-rand  2-diag
   LASPH  =      F    aspherical Exc in radial PAW
   METAGGA=      F    non-selfconsistent MetaGGA calc.

 Electronic Relaxation 1
   ENCUT  =  500.0 eV  36.75 Ry    6.06 a.u.   7.08  7.08  7.08*2*pi/ulx,y,z
   ENINI  =  500.0     initial cutoff
   ENAUG  =  322.1 eV  augmentation charge cutoff
   NELM   =    400;   NELMIN=  2; NELMDL= -5     # of ELM steps 
   EDIFF  = 0.1E-06   stopping-criterion for ELM
   LREAL  =      F    real-space projection
   NLSPLINE    = F    spline interpolate recip. space projectors
   LCOMPAT=      F    compatible to vasp.4.4
   GGA_COMPAT  = T    GGA compatible to vasp.4.4-vasp.4.6
   LMAXPAW     = -100 max onsite density
   LMAXMIX     =    2 max onsite mixed and CHGCAR
   VOSKOWN=      0    Vosko Wilk Nusair interpolation
   ROPT   =    0.00000
 Ionic relaxation
   EDIFFG = 0.1E-05   stopping-criterion for IOM
   NSW    =      1    number of steps for IOM
   NBLOCK =      1;   KBLOCK =      1    inner block; outer block 
   IBRION =      2    ionic relax: 0-MD 1-quasi-New 2-CG
   NFREE  =      1    steps in history (QN), initial steepest desc. (CG)
   ISIF   =      2    stress and relaxation
   IWAVPR =     11    prediction:  0-non 1-charg 2-wave 3-comb
   ISYM   =      2    0-nonsym 1-usesym 2-fastsym
   LCORR  =      T    Harris-Foulkes like correction to forces

   POTIM  = 0.5000    time-step for ionic-motion
   TEIN   =    0.0    initial temperature
   TEBEG  =    0.0;   TEEND  =   0.0 temperature during run
   SMASS  =  -3.00    Nose mass-parameter (am)
   estimated Nose-frequenzy (Omega)   =  0.10E-29 period in steps =****** mass=  -0.345E-27a.u.
   SCALEE = 1.0000    scale energy and forces
   NPACO  =    256;   APACO  = 16.0  distance and # of slots for P.C.
   PSTRESS=    0.0 pullay stress

  Mass of Ions in am
   POMASS =  28.09
  Ionic Valenz
   ZVAL   =   4.00
  Atomic Wigner-Seitz radii
   RWIGS  =  -1.00
  virtual crystal weights 
   VCA    =   1.00
   NELECT =       8.0000    total number of electrons
   NUPDOWN=      -1.0000    fix difference up-down

 DOS related values:
   EMIN   =  10.00;   EMAX   =-10.00  energy-range for DOS
   EFERMI =   0.00
   ISMEAR =     0;   SIGMA  =   0.20  broadening in eV -4-tet -1-fermi 0-gaus

 Electronic relaxation 2 (details)
   IALGO  =     38    algorithm
   LDIAG  =      T    sub-space diagonalisation (order eigenvalues)
   LSUBROT=      F    optimize rotation matrix (better conditioning)
   TURBO    =      0    0=normal 1=particle mesh
   IRESTART =      0    0=no restart 2=restart with 2 vectors
   NREBOOT  =      0    no. of reboots
   NMIN     =      0    reboot dimension
   EREF     =   0.00    reference energy to select bands
   IMIX   =      4    mixing-type and parameters
     AMIX     =   0.40;   BMIX     =  1.00
     AMIX_MAG =   1.60;   BMIX_MAG =  1.00
     AMIN     =   0.10
     WC   =   100.;   INIMIX=   1;  MIXPRE=   1;  MAXMIX= -45

 Intra band minimization:
   WEIMIN = 0.0010     energy-eigenvalue tresh-hold
   EBREAK =  0.16E-08  absolut break condition
   DEPER  =   0.30     relativ break condition  

   TIME   =   0.40     timestep for ELM

  volume/ion in A,a.u.               =      20.72       139.86
  Fermi-wavevector in a.u.,A,eV,Ry     =   0.946087  1.787845 12.178313  0.895081
  Thomas-Fermi vector in A             =   2.074051

 Write flags
   LWAVE  =      F    write WAVECAR
   LCHARG =      F    write CHGCAR
   LVTOT  =      F    write LOCPOT, total local potential
   LVHAR  =      F    write LOCPOT, Hartree potential only
   LELF   =      F    write electronic localiz. function (ELF)
   LORBIT =      0    0 simple, 1 ext, 2 COOP (PROOUT)


 Dipole corrections
   LMONO  =      F    monopole corrections only (constant potential shift)
   LDIPOL =      F    correct potential (dipole corrections)
   IDIPOL =      0    1-x, 2-y, 3-z, 4-all directions 
   EPSILON=  1.0000000 bulk dielectric constant

 Exchange correlation treatment:
   GGA     =    BO    GGA type
   LEXCH   =    42    internal setting for exchange type
   VOSKOWN=      0    Vosko Wilk Nusair interpolation
   LHFCALC =     F    Hartree Fock is set to
   LHFONE  =     F    Hartree Fock one center treatment
   AEXX    =    0.0000 exact exchange contribution

 vdW DFT:
   LUSE_VDW   =     T    switch on vdW DFT
   Zab_VDW    =-.8491    correlation parameter
   PARAM1     =0.1833
   PARAM2     =0.2200
   PARAM3     =0.0000

 Linear response parameters
   LEPSILON=     F    determine dielectric tensor
   LRPA    =     F    only Hartree local field effects (RPA)
   LNABLA  =     F    use nabla operator in PAW spheres
   LVEL    =     F    velocity operator in full k-point grid
   LINTERFAST=   F  fast interpolation
   KINTER  =     0    interpolate to denser k-point grid
   CSHIFT  =0.1000    complex shift for real part using Kramers Kronig
   OMEGAMAX=  -1.0    maximum frequency
   DEG_THRESHOLD= 0.2000000E-02 threshold for treating states as degnerate
   RTIME   =    0.100 relaxation time in fs

 Orbital magnetization related:
   ORBITALMAG=     F  switch on orbital magnetization
   LCHIMAG   =     F  perturbation theory with respect to B field
   DQ        =  0.001000  dq finite difference perturbation B field



--------------------------------------------------------------------------------------------------------


 conjugate gradient relaxation of ions
 charge density and potential will be updated during run
 non-spin polarized calculation
 Variant of blocked Davidson
 Davidson routine will perform the subspace rotation
 perform sub-space diagonalisation
    after iterative eigenvector-optimisation
 modified Broyden-mixing scheme, WC =      100.0
 initial mixing is a Kerker type mixing with AMIX =  0.4000 and BMIX =      1.0000
 Hartree-type preconditioning will be used
 using additional bands           12
 reciprocal scheme for non local part
 use partial core corrections
 calculate Harris-corrections to forces   (improved forces if not selfconsistent)
 use gradient corrections 
 use of overlap-Matrix (Vanderbilt PP)
 Gauss-broadening in eV      SIGMA  =   0.20


--------------------------------------------------------------------------------------------------------


  energy-cutoff  :      500.00
  volume of cell :       41.45
      direct lattice vectors                 reciprocal lattice vectors
     0.000000000  2.746821138  2.746821138    -0.182028598  0.182028598  0.182028598
     2.746821138  0.000000000  2.746821138     0.182028598 -0.182028598  0.182028598
     2.746821138  2.746821138  0.000000000     0.182028598  0.182028598 -0.182028598

  length of vectors
     3.884591706  3.884591706  3.884591706     0.315282780  0.315282780  0.315282780



 k-points in units of 2pi/SCALE and weight: Automatic kpoint scheme                 
   0.00000000  0.00000000  0.00000000       0.002
  -0.02275357  0.02275357  0.02275357       0.016
  -0.04550715  0.04550715  0.04550715       0.016
  -0.06826072  0.06826072  0.06826072       0.016
  -0.09101430  0.09101430  0.09101430       0.008
   0.00000000  0.00000000  0.04550715       0.012
  -0.02275357  0.02275357  0.06826072       0.047
  -0.04550715  0.04550715  0.09101430       0.047
  -0.06826072  0.06826072  0.11376787       0.047
   0.09101430 -0.09101430 -0.04550715       0.047
   0.06826072 -0.06826072 -0.02275357       0.047
   0.04550715 -0.04550715  0.00000000       0.023
   0.00000000  0.00000000  0.09101430       0.012
  -0.02275357  0.02275357  0.11376787       0.047
  -0.04550715  0.04550715  0.13652145       0.047
   0.11376787 -0.11376787 -0.02275357       0.047
   0.09101430 -0.09101430  0.00000000       0.023
   0.00000000  0.00000000  0.13652145       0.012
  -0.02275357  0.02275357  0.15927502       0.047
   0.13652145 -0.13652145  0.00000000       0.023
   0.00000000  0.00000000  0.18202860       0.006
   0.00000000  0.04550715  0.09101430       0.047
  -0.02275357  0.06826072  0.11376787       0.094
   0.13652145 -0.09101430 -0.04550715       0.047
   0.00000000  0.04550715  0.13652145       0.047
   0.15927502 -0.11376787 -0.02275357       0.094
   0.13652145 -0.09101430  0.00000000       0.047
   0.18202860 -0.13652145  0.00000000       0.023
   0.18202860 -0.09101430  0.00000000       0.012

 k-points in reciprocal lattice and weights: Automatic kpoint scheme                 
   0.00000000  0.00000000  0.00000000       0.002
   0.12500000  0.00000000  0.00000000       0.016
   0.25000000  0.00000000  0.00000000       0.016
   0.37500000  0.00000000  0.00000000       0.016
   0.50000000  0.00000000  0.00000000       0.008
   0.12500000  0.12500000  0.00000000       0.012
   0.25000000  0.12500000  0.00000000       0.047
   0.37500000  0.12500000  0.00000000       0.047
   0.50000000  0.12500000  0.00000000       0.047
  -0.37500000  0.12500000  0.00000000       0.047
  -0.25000000  0.12500000  0.00000000       0.047
  -0.12500000  0.12500000  0.00000000       0.023
   0.25000000  0.25000000  0.00000000       0.012
   0.37500000  0.25000000  0.00000000       0.047
   0.50000000  0.25000000  0.00000000       0.047
  -0.37500000  0.25000000  0.00000000       0.047
  -0.25000000  0.25000000  0.00000000       0.023
   0.37500000  0.37500000  0.00000000       0.012
   0.50000000  0.37500000  0.00000000       0.047
  -0.37500000  0.37500000  0.00000000       0.023
   0.50000000  0.50000000  0.00000000       0.006
   0.37500000  0.25000000  0.12500000       0.047
   0.50000000  0.25000000  0.12500000       0.094
  -0.37500000  0.25000000  0.12500000       0.047
   0.50000000  0.37500000  0.12500000       0.047
  -0.37500000  0.37500000  0.12500000       0.094
  -0.25000000  0.37500000  0.12500000       0.047
  -0.37500000  0.50000000  0.12500000       0.023
  -0.25000000  0.50000000  0.25000000       0.012

 position of ions in fractional coordinates (direct lattice) 
   0.75000000  0.75000000  0.75000000
   0.50000000  0.50000000  0.50000000

 position of ions in cartesian coordinates  (Angst):
   4.12023171  4.12023171  4.12023171
   2.74682114  2.74682114  2.74682114



--------------------------------------------------------------------------------------------------------


 k-point  1 :   0.0000 0.0000 0.0000  plane waves:    1067
 k-point  2 :   0.1250 0.0000 0.0000  plane waves:    1034
 k-point  3 :   0.2500 0.0000 0.0000  plane waves:    1053
 k-point  4 :   0.3750 0.0000 0.0000  plane waves:    1050
 k-point  5 :   0.5000 0.0000 0.0000  plane waves:    1056
 k-point  6 :   0.1250 0.1250 0.0000  plane waves:    1038
 k-point  7 :   0.2500 0.1250 0.0000  plane waves:    1046
 k-point  8 :   0.3750 0.1250 0.0000  plane waves:    1047
 k-point  9 :   0.5000 0.1250 0.0000  plane waves:    1051
 k-point 10 :  -0.3750 0.1250 0.0000  plane waves:    1054
 k-point 11 :  -0.2500 0.1250 0.0000  plane waves:    1056
 k-point 12 :  -0.1250 0.1250 0.0000  plane waves:    1049
 k-point 13 :   0.2500 0.2500 0.0000  plane waves:    1062
 k-point 14 :   0.3750 0.2500 0.0000  plane waves:    1048
 k-point 15 :   0.5000 0.2500 0.0000  plane waves:    1053
 k-point 16 :  -0.3750 0.2500 0.0000  plane waves:    1064
 k-point 17 :  -0.2500 0.2500 0.0000  plane waves:    1049
 k-point 18 :   0.3750 0.3750 0.0000  plane waves:    1042
 k-point 19 :   0.5000 0.3750 0.0000  plane waves:    1056
 k-point 20 :  -0.3750 0.3750 0.0000  plane waves:    1063
 k-point 21 :   0.5000 0.5000 0.0000  plane waves:    1034
 k-point 22 :   0.3750 0.2500 0.1250  plane waves:    1048
 k-point 23 :   0.5000 0.2500 0.1250  plane waves:    1056
 k-point 24 :  -0.3750 0.2500 0.1250  plane waves:    1058
 k-point 25 :   0.5000 0.3750 0.1250  plane waves:    1051
 k-point 26 :  -0.3750 0.3750 0.1250  plane waves:    1056
 k-point 27 :  -0.2500 0.3750 0.1250  plane waves:    1060
 k-point 28 :  -0.3750 0.5000 0.1250  plane waves:    1058
 k-point 29 :  -0.2500 0.5000 0.2500  plane waves:    1048

 maximum and minimum number of plane-waves per node :      1067     1034

 maximum number of plane-waves:      1067
 maximum index in each direction: 
   IXMAX=    7   IYMAX=    7   IZMAX=    7
   IXMIN=   -7   IYMIN=   -7   IZMIN=   -7

 WARNING: aliasing errors must be expected set NGX to  30 to avoid them
 WARNING: aliasing errors must be expected set NGY to  30 to avoid them
 WARNING: aliasing errors must be expected set NGZ to  30 to avoid them
 aliasing errors are usually negligible using standard VASP settings
 and one can safely disregard these warnings

 serial   3D FFT for wavefunctions
 parallel 3D FFT for charge:
    minimum data exchange during FFTs selected (reduces bandwidth)


 total amount of memory used by VASP on root node    34557. kBytes
========================================================================

   base      :      30000. kBytes
   nonl-proj :       2023. kBytes
   fftplans  :        517. kBytes
   grid      :       1507. kBytes
   one-center:          6. kBytes
   wavefun   :        504. kBytes

     INWAV:  cpu time    0.0000: real time    0.0000
 Broyden mixing: mesh for mixing (old mesh)
   NGX = 15   NGY = 15   NGZ = 15
  (NGX  = 56   NGY  = 56   NGZ  = 56)
  gives a total of   3375 points

 initial charge density was supplied:
 charge density of overlapping atoms calculated
 number of electron       8.0000000 magnetization 
 keeping initial charge density in first step


--------------------------------------------------------------------------------------------------------


 Maximum index for augmentation-charges         1417 (set IRDMAX)


--------------------------------------------------------------------------------------------------------


 First call to EWALD:  gamma=   0.512
 Maximum number of real-space cells 3x 3x 3
 Maximum number of reciprocal cells 3x 3x 3

 FEWALD executed in parallel
    FEWALD:  cpu time    0.0000: real time    0.0008


----------------------------------------- Iteration    1(   1)  ---------------------------------------


vdW kernel read from vdw_kernel.bindat
  0.0000  0.2424  0.5071  0.7962  1.1119  1.4567  1.8333  2.2446  2.6937  3.1842
  3.7199  4.3049  4.9438  5.6415  6.4036  7.2358  8.1446  9.1372 10.2212 11.4050
 12.6979 14.1099 15.6519 17.3360 19.1751 21.1837 23.3773 25.7729 28.3892 31.2465
 34.3669 37.7748 41.4965 45.5611 50.0000

    POTLOK:  cpu time    2.1120: real time    2.1092
    SETDIJ:  cpu time    0.0040: real time    0.0026
     EDDAV:  cpu time    0.3840: real time    0.3851
       DOS:  cpu time    0.0000: real time    0.0005
    --------------------------------------------
      LOOP:  cpu time    2.5000: real time    2.4988

 eigenvalue-minimisations  :   928
 total energy-change (2. order) : 0.3226158E+01  (-0.3525450E+03)
 number of electron       8.0000000 magnetization 
 augmentation part        8.0000000 magnetization 

 Free energy of the ion-electron system (eV)
  ---------------------------------------------------
  alpha Z        PSCENC =         3.24857844
  Ewald energy   TEWEN  =      -225.91568183
  -Hartree energ DENC   =       -11.53197166
  -exchange      EXHF   =         0.00000000
  -V(xc)+E(xc)   XCENC  =       -20.29573795
  PAW double counting   =       189.40224250     -152.61488262
  entropy T*S    EENTRO =        -0.01474898
  eigenvalues    EBANDS =        12.35462187
  atomic energy  EATOM  =       208.59373829
  Solvation  Ediel_sol  =         0.00000000
  ---------------------------------------------------
  free energy    TOTEN  =         3.22615806 eV

  energy without entropy =        3.24090703  energy(sigma->0) =        3.23353255


--------------------------------------------------------------------------------------------------------




----------------------------------------- Iteration    1(   2)  ---------------------------------------


     EDDAV:  cpu time    0.6440: real time    0.6446
       DOS:  cpu time    0.0000: real time    0.0005
    --------------------------------------------
      LOOP:  cpu time    0.6440: real time    0.9235

 eigenvalue-minimisations  :  1360
 total energy-change (2. order) :-0.1155264E+02  (-0.1139875E+02)
 number of electron       8.0000000 magnetization 
 augmentation part        8.0000000 magnetization 

 Free energy of the ion-electron system (eV)
  ---------------------------------------------------
  alpha Z        PSCENC =         3.24857844
  Ewald energy   TEWEN  =      -225.91568183
  -Hartree energ DENC   =       -11.53197166
  -exchange      EXHF   =         0.00000000
  -V(xc)+E(xc)   XCENC  =       -20.29573795
  PAW double counting   =       189.40224250     -152.61488262
  entropy T*S    EENTRO =        -0.00000430
  eigenvalues    EBANDS =         0.78723294
  atomic energy  EATOM  =       208.59373829
  Solvation  Ediel_sol  =         0.00000000
  ---------------------------------------------------
  free energy    TOTEN  =        -8.32648619 eV

  energy without entropy =       -8.32648190  energy(sigma->0) =       -8.32648404


--------------------------------------------------------------------------------------------------------




----------------------------------------- Iteration    1(   3)  ---------------------------------------


     EDDAV:  cpu time    0.4920: real time    0.4900
       DOS:  cpu time    0.0000: real time    0.0005
    --------------------------------------------
      LOOP:  cpu time    0.4920: real time    0.4959

 eigenvalue-minimisations  :  1072
 total energy-change (2. order) :-0.7956500E-01  (-0.7956498E-01)
 number of electron       8.0000000 magnetization 
 augmentation part        8.0000000 magnetization 

 Free energy of the ion-electron system (eV)
  ---------------------------------------------------
  alpha Z        PSCENC =         3.24857844
  Ewald energy   TEWEN  =      -225.91568183
  -Hartree energ DENC   =       -11.53197166
  -exchange      EXHF   =         0.00000000
  -V(xc)+E(xc)   XCENC  =       -20.29573795
  PAW double counting   =       189.40224250     -152.61488262
  entropy T*S    EENTRO =        -0.00000337
  eigenvalues    EBANDS =         0.70766702
  atomic energy  EATOM  =       208.59373829
  Solvation  Ediel_sol  =         0.00000000
  ---------------------------------------------------
  free energy    TOTEN  =        -8.40605119 eV

  energy without entropy =       -8.40604782  energy(sigma->0) =       -8.40604951


--------------------------------------------------------------------------------------------------------




----------------------------------------- Iteration    1(   4)  ---------------------------------------


     EDDAV:  cpu time    0.9120: real time    0.9116
       DOS:  cpu time    0.0000: real time    0.0004
    --------------------------------------------
      LOOP:  cpu time    0.9120: real time    0.9791

 eigenvalue-minimisations  :  1712
 total energy-change (2. order) :-0.2538109E-03  (-0.2538115E-03)
 number of electron       8.0000000 magnetization 
 augmentation part        8.0000000 magnetization 

 Free energy of the ion-electron system (eV)
  ---------------------------------------------------
  alpha Z        PSCENC =         3.24857844
  Ewald energy   TEWEN  =      -225.91568183
  -Hartree energ DENC   =       -11.53197166
  -exchange      EXHF   =         0.00000000
  -V(xc)+E(xc)   XCENC  =       -20.29573795
  PAW double counting   =       189.40224250     -152.61488262
  entropy T*S    EENTRO =        -0.00000337
  eigenvalues    EBANDS =         0.70741321
  atomic energy  EATOM  =       208.59373829
  Solvation  Ediel_sol  =         0.00000000
  ---------------------------------------------------
  free energy    TOTEN  =        -8.40630500 eV

  energy without entropy =       -8.40630163  energy(sigma->0) =       -8.40630332


--------------------------------------------------------------------------------------------------------




----------------------------------------- Iteration    1(   5)  ---------------------------------------


     EDDAV:  cpu time    0.4760: real time    0.4746
       DOS:  cpu time    0.0000: real time    0.0004
    CHARGE:  cpu time    0.0360: real time    0.0361
    MIXING:  cpu time    0.0000: real time    0.0004
    --------------------------------------------
      LOOP:  cpu time    0.5120: real time    0.5285

 eigenvalue-minimisations  :  1056
 total energy-change (2. order) :-0.8056759E-08  (-0.7598285E-08)
 number of electron       7.9999999 magnetization 
 augmentation part       -0.4822956 magnetization 

 Broyden mixing:
  rms(total) = 0.36745E+00    rms(broyden)= 0.36745E+00
  rms(prec ) = 0.88462E+00
  weight for this iteration     100.00

 Free energy of the ion-electron system (eV)
  ---------------------------------------------------
  alpha Z        PSCENC =         3.24857844
  Ewald energy   TEWEN  =      -225.91568183
  -Hartree energ DENC   =       -11.53197166
  -exchange      EXHF   =         0.00000000
  -V(xc)+E(xc)   XCENC  =       -20.29573795
  PAW double counting   =       189.40224250     -152.61488262
  entropy T*S    EENTRO =        -0.00000337
  eigenvalues    EBANDS =         0.70741320
  atomic energy  EATOM  =       208.59373829
  Solvation  Ediel_sol  =         0.00000000
  ---------------------------------------------------
  free energy    TOTEN  =        -8.40630501 eV

  energy without entropy =       -8.40630164  energy(sigma->0) =       -8.40630333


--------------------------------------------------------------------------------------------------------




----------------------------------------- Iteration    1(   6)  ---------------------------------------


    POTLOK:  cpu time    1.6160: real time    1.6168
    SETDIJ:  cpu time    0.0040: real time    0.0026
     EDDAV:  cpu time    0.5680: real time    0.5664
       DOS:  cpu time    0.0000: real time    0.0005
    CHARGE:  cpu time    0.0320: real time    0.0347
    MIXING:  cpu time    0.0040: real time    0.0005
    --------------------------------------------
      LOOP:  cpu time    2.2240: real time    2.2394

 eigenvalue-minimisations  :  1344
 total energy-change (2. order) : 0.4983451E-01  (-0.8496362E-02)
 number of electron       7.9999999 magnetization 
 augmentation part       -0.4755910 magnetization 

 Broyden mixing:
  rms(total) = 0.22474E+00    rms(broyden)= 0.22474E+00
  rms(prec ) = 0.53427E+00
  weight for this iteration     100.00

 eigenvalues of (default mixing * dielectric matrix)
  average eigenvalue GAMMA=   2.5577
  2.5577

 Free energy of the ion-electron system (eV)
  ---------------------------------------------------
  alpha Z        PSCENC =         3.24857844
  Ewald energy   TEWEN  =      -225.91568183
  -Hartree energ DENC   =       -13.05908026
  -exchange      EXHF   =         0.00000000
  -V(xc)+E(xc)   XCENC  =       -20.06067282
  PAW double counting   =       304.69764172     -268.03829043
  entropy T*S    EENTRO =        -0.00001319
  eigenvalues    EBANDS =         2.17730957
  atomic energy  EATOM  =       208.59373829
  Solvation  Ediel_sol  =         0.00000000
  ---------------------------------------------------
  free energy    TOTEN  =        -8.35647050 eV

  energy without entropy =       -8.35645732  energy(sigma->0) =       -8.35646391


--------------------------------------------------------------------------------------------------------




----------------------------------------- Iteration    1(   7)  ---------------------------------------


    POTLOK:  cpu time    1.6040: real time    1.6059
    SETDIJ:  cpu time    0.0040: real time    0.0020
     EDDAV:  cpu time    0.5440: real time    0.5465
       DOS:  cpu time    0.0040: real time    0.0005
    CHARGE:  cpu time    0.0320: real time    0.0342
    MIXING:  cpu time    0.0000: real time    0.0005
    --------------------------------------------
      LOOP:  cpu time    2.1880: real time    2.2285

 eigenvalue-minimisations  :  1392
 total energy-change (2. order) : 0.6040614E-02  (-0.1944388E-01)
 number of electron       7.9999999 magnetization 
 augmentation part       -0.4666198 magnetization 

 Broyden mixing:
  rms(total) = 0.18636E-01    rms(broyden)= 0.18636E-01
  rms(prec ) = 0.47546E-01
  weight for this iteration     100.00

 eigenvalues of (default mixing * dielectric matrix)
  average eigenvalue GAMMA=   2.3066
  2.3066  2.3066

 Free energy of the ion-electron system (eV)
  ---------------------------------------------------
  alpha Z        PSCENC =         3.24857844
  Ewald energy   TEWEN  =      -225.91568183
  -Hartree energ DENC   =       -15.64263509
  -exchange      EXHF   =         0.00000000
  -V(xc)+E(xc)   XCENC  =       -19.64028175
  PAW double counting   =       542.32516671     -505.83096723
  entropy T*S    EENTRO =        -0.00008282
  eigenvalues    EBANDS =         4.51173539
  atomic energy  EATOM  =       208.59373829
  Solvation  Ediel_sol  =         0.00000000
  ---------------------------------------------------
  free energy    TOTEN  =        -8.35042989 eV

  energy without entropy =       -8.35034707  energy(sigma->0) =       -8.35038848


--------------------------------------------------------------------------------------------------------




----------------------------------------- Iteration    1(   8)  ---------------------------------------


    POTLOK:  cpu time    1.6120: real time    1.6112
    SETDIJ:  cpu time    0.0040: real time    0.0025
     EDDAV:  cpu time    0.4560: real time    0.4563
       DOS:  cpu time    0.0000: real time    0.0006
    CHARGE:  cpu time    0.0360: real time    0.0341
    MIXING:  cpu time    0.0000: real time    0.0005
    --------------------------------------------
      LOOP:  cpu time    2.1080: real time    2.1447

 eigenvalue-minimisations  :  1056
 total energy-change (2. order) : 0.1643732E-01  (-0.4906701E-03)
 number of electron       7.9999999 magnetization 
 augmentation part       -0.4679303 magnetization 

 Broyden mixing:
  rms(total) = 0.95469E-02    rms(broyden)= 0.95469E-02
  rms(prec ) = 0.23538E-01
  weight for this iteration     100.00

 eigenvalues of (default mixing * dielectric matrix)
  average eigenvalue GAMMA=   2.2068
  3.1194  1.7505  1.7505

 Free energy of the ion-electron system (eV)
  ---------------------------------------------------
  alpha Z        PSCENC =         3.24857844
  Ewald energy   TEWEN  =      -225.91568183
  -Hartree energ DENC   =       -15.41888389
  -exchange      EXHF   =         0.00000000
  -V(xc)+E(xc)   XCENC  =       -19.65553632
  PAW double counting   =       520.60374282     -484.04615950
  entropy T*S    EENTRO =        -0.00005962
  eigenvalues    EBANDS =         4.25626905
  atomic energy  EATOM  =       208.59373829
  Solvation  Ediel_sol  =         0.00000000
  ---------------------------------------------------
  free energy    TOTEN  =        -8.33399257 eV

  energy without entropy =       -8.33393295  energy(sigma->0) =       -8.33396276


--------------------------------------------------------------------------------------------------------




----------------------------------------- Iteration    1(   9)  ---------------------------------------


    POTLOK:  cpu time    1.6000: real time    1.5991
    SETDIJ:  cpu time    0.0000: real time    0.0026
     EDDAV:  cpu time    0.5640: real time    0.5630
       DOS:  cpu time    0.0000: real time    0.0005
    CHARGE:  cpu time    0.0320: real time    0.0313
    MIXING:  cpu time    0.0000: real time    0.0005
    --------------------------------------------
      LOOP:  cpu time    2.1960: real time    2.2410

 eigenvalue-minimisations  :  1408
 total energy-change (2. order) :-0.1118662E-02  (-0.5581277E-04)
 number of electron       7.9999999 magnetization 
 augmentation part       -0.4676001 magnetization 

 Broyden mixing:
  rms(total) = 0.52350E-02    rms(broyden)= 0.52350E-02
  rms(prec ) = 0.69303E-02
  weight for this iteration     100.00

 eigenvalues of (default mixing * dielectric matrix)
  average eigenvalue GAMMA=   2.2210
  0.9615  2.9277  2.4974  2.4974

 Free energy of the ion-electron system (eV)
  ---------------------------------------------------
  alpha Z        PSCENC =         3.24857844
  Ewald energy   TEWEN  =      -225.91568183
  -Hartree energ DENC   =       -15.56333769
  -exchange      EXHF   =         0.00000000
  -V(xc)+E(xc)   XCENC  =       -19.63110729
  PAW double counting   =       530.64204123     -494.09141091
  entropy T*S    EENTRO =        -0.00006457
  eigenvalues    EBANDS =         4.38213310
  atomic energy  EATOM  =       208.59373829
  Solvation  Ediel_sol  =         0.00000000
  ---------------------------------------------------
  free energy    TOTEN  =        -8.33511123 eV

  energy without entropy =       -8.33504666  energy(sigma->0) =       -8.33507895


--------------------------------------------------------------------------------------------------------




----------------------------------------- Iteration    1(  10)  ---------------------------------------


    POTLOK:  cpu time    1.5960: real time    1.5926
    SETDIJ:  cpu time    0.0000: real time    0.0027
     EDDAV:  cpu time    0.4120: real time    0.4097
       DOS:  cpu time    0.0000: real time    0.0005
    CHARGE:  cpu time    0.0320: real time    0.0339
    MIXING:  cpu time    0.0040: real time    0.0005
    --------------------------------------------
      LOOP:  cpu time    2.0440: real time    2.0807

 eigenvalue-minimisations  :  1120
 total energy-change (2. order) : 0.7113923E-06  (-0.2371987E-05)
 number of electron       7.9999999 magnetization 
 augmentation part       -0.4676247 magnetization 

 Broyden mixing:
  rms(total) = 0.91799E-03    rms(broyden)= 0.91799E-03
  rms(prec ) = 0.10445E-02
  weight for this iteration     100.00

 eigenvalues of (default mixing * dielectric matrix)
  average eigenvalue GAMMA=   1.8871
  2.9192  2.4846  2.2653  0.9650  0.8013

 Free energy of the ion-electron system (eV)
  ---------------------------------------------------
  alpha Z        PSCENC =         3.24857844
  Ewald energy   TEWEN  =      -225.91568183
  -Hartree energ DENC   =       -15.54300568
  -exchange      EXHF   =         0.00000000
  -V(xc)+E(xc)   XCENC  =       -19.63532405
  PAW double counting   =       522.16494606     -485.61365349
  entropy T*S    EENTRO =        -0.00006337
  eigenvalues    EBANDS =         4.36535513
  atomic energy  EATOM  =       208.59373829
  Solvation  Ediel_sol  =         0.00000000
  ---------------------------------------------------
  free energy    TOTEN  =        -8.33511052 eV

  energy without entropy =       -8.33504715  energy(sigma->0) =       -8.33507884


--------------------------------------------------------------------------------------------------------




----------------------------------------- Iteration    1(  11)  ---------------------------------------


    POTLOK:  cpu time    1.6040: real time    1.6065
    SETDIJ:  cpu time    0.0040: real time    0.0026
     EDDAV:  cpu time    0.8240: real time    0.8245
       DOS:  cpu time    0.0000: real time    0.0005
    CHARGE:  cpu time    0.0360: real time    0.0343
    MIXING:  cpu time    0.0000: real time    0.0006
    --------------------------------------------
      LOOP:  cpu time    2.4680: real time    2.5411

 eigenvalue-minimisations  :  1568
 total energy-change (2. order) : 0.1778729E-03  (-0.3159867E-07)
 number of electron       7.9999999 magnetization 
 augmentation part       -0.4676379 magnetization 

 Broyden mixing:
  rms(total) = 0.16839E-03    rms(broyden)= 0.16839E-03
  rms(prec ) = 0.22510E-03
  weight for this iteration     100.00

 eigenvalues of (default mixing * dielectric matrix)
  average eigenvalue GAMMA=   2.0053
  2.9177  2.4703  2.4703  2.2237  1.0043  0.9453

 Free energy of the ion-electron system (eV)
  ---------------------------------------------------
  alpha Z        PSCENC =         3.24857844
  Ewald energy   TEWEN  =      -225.91568183
  -Hartree energ DENC   =       -15.54305396
  -exchange      EXHF   =         0.00000000
  -V(xc)+E(xc)   XCENC  =       -19.63499433
  PAW double counting   =       523.09791477     -486.54603082
  entropy T*S    EENTRO =        -0.00006327
  eigenvalues    EBANDS =         4.36466008
  atomic energy  EATOM  =       208.59373829
  Solvation  Ediel_sol  =         0.00000000
  ---------------------------------------------------
  free energy    TOTEN  =        -8.33493265 eV

  energy without entropy =       -8.33486937  energy(sigma->0) =       -8.33490101


--------------------------------------------------------------------------------------------------------




----------------------------------------- Iteration    1(  12)  ---------------------------------------


    POTLOK:  cpu time    1.6320: real time    1.6311
    SETDIJ:  cpu time    0.0000: real time    0.0025
     EDDAV:  cpu time    0.4120: real time    0.4138
       DOS:  cpu time    0.0000: real time    0.0005
    CHARGE:  cpu time    0.0360: real time    0.0339
    MIXING:  cpu time    0.0000: real time    0.0006
    --------------------------------------------
      LOOP:  cpu time    2.0840: real time    2.1526

 eigenvalue-minimisations  :  1104
 total energy-change (2. order) : 0.9562415E-05  (-0.7118621E-08)
 number of electron       7.9999999 magnetization 
 augmentation part       -0.4676379 magnetization 

 Broyden mixing:
  rms(total) = 0.43183E-04    rms(broyden)= 0.43183E-04
  rms(prec ) = 0.72404E-04
  weight for this iteration     100.00

 eigenvalues of (default mixing * dielectric matrix)
  average eigenvalue GAMMA=   1.9384
  3.0225  2.7928  2.4490  2.2102  0.9677  1.0122  1.1142

 Free energy of the ion-electron system (eV)
  ---------------------------------------------------
  alpha Z        PSCENC =         3.24857844
  Ewald energy   TEWEN  =      -225.91568183
  -Hartree energ DENC   =       -15.54334582
  -exchange      EXHF   =         0.00000000
  -V(xc)+E(xc)   XCENC  =       -19.63496284
  PAW double counting   =       523.40755978     -486.85563874
  entropy T*S    EENTRO =        -0.00006324
  eigenvalues    EBANDS =         4.36489289
  atomic energy  EATOM  =       208.59373829
  Solvation  Ediel_sol  =         0.00000000
  ---------------------------------------------------
  free energy    TOTEN  =        -8.33492309 eV

  energy without entropy =       -8.33485984  energy(sigma->0) =       -8.33489146


--------------------------------------------------------------------------------------------------------




----------------------------------------- Iteration    1(  13)  ---------------------------------------


    POTLOK:  cpu time    1.6000: real time    1.5992
    SETDIJ:  cpu time    0.0000: real time    0.0020
     EDDAV:  cpu time    0.4960: real time    0.4960
       DOS:  cpu time    0.0000: real time    0.0005
    CHARGE:  cpu time    0.0360: real time    0.0339
    MIXING:  cpu time    0.0000: real time    0.0006
    --------------------------------------------
      LOOP:  cpu time    2.1320: real time    2.1953

 eigenvalue-minimisations  :  1088
 total energy-change (2. order) : 0.2791610E-05  (-0.5060765E-09)
 number of electron       7.9999999 magnetization 
 augmentation part       -0.4676387 magnetization 

 Broyden mixing:
  rms(total) = 0.73127E-05    rms(broyden)= 0.73127E-05
  rms(prec ) = 0.91731E-05
  weight for this iteration     100.00

 eigenvalues of (default mixing * dielectric matrix)
  average eigenvalue GAMMA=   2.0480
  3.0354  3.0354  2.5867  2.5867  2.1958  1.0016  0.9872  0.9550

 Free energy of the ion-electron system (eV)
  ---------------------------------------------------
  alpha Z        PSCENC =         3.24857844
  Ewald energy   TEWEN  =      -225.91568183
  -Hartree energ DENC   =       -15.54309335
  -exchange      EXHF   =         0.00000000
  -V(xc)+E(xc)   XCENC  =       -19.63501303
  PAW double counting   =       523.35377247     -486.80183367
  entropy T*S    EENTRO =        -0.00006323
  eigenvalues    EBANDS =         4.36467562
  atomic energy  EATOM  =       208.59373829
  Solvation  Ediel_sol  =         0.00000000
  ---------------------------------------------------
  free energy    TOTEN  =        -8.33492029 eV

  energy without entropy =       -8.33485707  energy(sigma->0) =       -8.33488868


--------------------------------------------------------------------------------------------------------




----------------------------------------- Iteration    1(  14)  ---------------------------------------


    POTLOK:  cpu time    1.6480: real time    1.6484
    SETDIJ:  cpu time    0.0040: real time    0.0025
     EDDAV:  cpu time    0.2400: real time    0.2388
       DOS:  cpu time    0.0000: real time    0.0005
    CHARGE:  cpu time    0.0240: real time    0.0242
    MIXING:  cpu time    0.0000: real time    0.0006
    --------------------------------------------
      LOOP:  cpu time    1.9160: real time    1.9686

 eigenvalue-minimisations  :   576
 total energy-change (2. order) :-0.5086422E-06  (-0.2044050E-10)
 number of electron       7.9999999 magnetization 
 augmentation part       -0.4676386 magnetization 

 Broyden mixing:
  rms(total) = 0.30602E-06    rms(broyden)= 0.30602E-06
  rms(prec ) = 0.85672E-06
  weight for this iteration     100.00

 eigenvalues of (default mixing * dielectric matrix)
  average eigenvalue GAMMA=   1.9061
  3.0389  2.8716  2.6212  2.4696  2.1882  0.9764  0.9664  0.9664  1.0558

 Free energy of the ion-electron system (eV)
  ---------------------------------------------------
  alpha Z        PSCENC =         3.24857844
  Ewald energy   TEWEN  =      -225.91568183
  -Hartree energ DENC   =       -15.54312813
  -exchange      EXHF   =         0.00000000
  -V(xc)+E(xc)   XCENC  =       -19.63500849
  PAW double counting   =       523.34467679     -486.79274128
  entropy T*S    EENTRO =        -0.00006323
  eigenvalues    EBANDS =         4.36470864
  atomic energy  EATOM  =       208.59373829
  Solvation  Ediel_sol  =         0.00000000
  ---------------------------------------------------
  free energy    TOTEN  =        -8.33492080 eV

  energy without entropy =       -8.33485757  energy(sigma->0) =       -8.33488919


--------------------------------------------------------------------------------------------------------




----------------------------------------- Iteration    1(  15)  ---------------------------------------


    POTLOK:  cpu time    1.6200: real time    1.6189
    SETDIJ:  cpu time    0.0040: real time    0.0026
     EDDAV:  cpu time    0.2880: real time    0.2901
       DOS:  cpu time    0.0000: real time    0.0005
    CHARGE:  cpu time    0.0360: real time    0.0341
    MIXING:  cpu time    0.0000: real time    0.0007
    --------------------------------------------
      LOOP:  cpu time    1.9480: real time    1.9923

 eigenvalue-minimisations  :   656
 total energy-change (2. order) : 0.2058362E-06  (-0.1125523E-11)
 number of electron       7.9999999 magnetization 
 augmentation part       -0.4676386 magnetization 

 Broyden mixing:
  rms(total) = 0.32651E-06    rms(broyden)= 0.32651E-06
  rms(prec ) = 0.39083E-06
  weight for this iteration     100.00

 eigenvalues of (default mixing * dielectric matrix)
  average eigenvalue GAMMA=   1.9386
  3.0936  3.0607  2.7118  2.4501  2.1945  1.9181  1.0505  0.9845  0.9845  0.9372

 Free energy of the ion-electron system (eV)
  ---------------------------------------------------
  alpha Z        PSCENC =         3.24857844
  Ewald energy   TEWEN  =      -225.91568183
  -Hartree energ DENC   =       -15.54312409
  -exchange      EXHF   =         0.00000000
  -V(xc)+E(xc)   XCENC  =       -19.63500893
  PAW double counting   =       523.34525612     -486.79331983
  entropy T*S    EENTRO =        -0.00006323
  eigenvalues    EBANDS =         4.36470447
  atomic energy  EATOM  =       208.59373829
  Solvation  Ediel_sol  =         0.00000000
  ---------------------------------------------------
  free energy    TOTEN  =        -8.33492060 eV

  energy without entropy =       -8.33485737  energy(sigma->0) =       -8.33488898


--------------------------------------------------------------------------------------------------------




----------------------------------------- Iteration    1(  16)  ---------------------------------------


    POTLOK:  cpu time    1.6280: real time    1.6299
    SETDIJ:  cpu time    0.0040: real time    0.0027
     EDDAV:  cpu time    0.2360: real time    0.2354
       DOS:  cpu time    0.0000: real time    0.0005
    --------------------------------------------
      LOOP:  cpu time    1.8680: real time    2.0433

 eigenvalue-minimisations  :   560
 total energy-change (2. order) : 0.1587847E-07  (-0.4011603E-12)
 number of electron       7.9999999 magnetization 
 augmentation part       -0.4676386 magnetization 

 Free energy of the ion-electron system (eV)
  ---------------------------------------------------
  alpha Z        PSCENC =         3.24857844
  Ewald energy   TEWEN  =      -225.91568183
  -Hartree energ DENC   =       -15.54312392
  -exchange      EXHF   =         0.00000000
  -V(xc)+E(xc)   XCENC  =       -19.63500904
  PAW double counting   =       523.34509410     -486.79315781
  entropy T*S    EENTRO =        -0.00006323
  eigenvalues    EBANDS =         4.36470441
  atomic energy  EATOM  =       208.59373829
  Solvation  Ediel_sol  =         0.00000000
  ---------------------------------------------------
  free energy    TOTEN  =        -8.33492058 eV

  energy without entropy =       -8.33485735  energy(sigma->0) =       -8.33488897


--------------------------------------------------------------------------------------------------------




 average (electrostatic) potential at core
  the test charge radii are     0.9892
  (the norm of the test charge is              1.0000)
       1 -83.9186       2 -83.9186



 E-fermi :   5.8125     XC(G=0):  -9.2568     alpha+bet :-11.5728


 k-point     1 :       0.0000    0.0000    0.0000
  band No.  band energies     occupation 
      1      -6.1906      2.00000
      2       5.4604      1.98722
      3       5.4604      1.98722
      4       5.4604      1.98722
      5       8.0752      0.00000
      6       8.0752      0.00000
      7       8.0752      0.00000
      8       8.5315      0.00000
      9      13.2148      0.00000
     10      13.2148      0.00000
     11      13.3491      0.00000
     12      16.6559      0.00000
     13      16.6559      0.00000
     14      16.6559      0.00000
     15      20.7510      0.00000
     16      28.1675      0.00000

 k-point     2 :       0.1250    0.0000    0.0000
  band No.  band energies     occupation 
      1      -5.9930      2.00000
      2       3.9027      2.00000
      3       5.1891      1.99999
      4       5.1891      1.99999
      5       7.9303      0.00000
      6       8.4788      0.00000
      7       8.4788      0.00000
      8       9.9341      0.00000
      9      12.7481      0.00000
     10      12.7481      0.00000
     11      14.1154      0.00000
     12      16.1135      0.00000
     13      17.7864      0.00000
     14      17.7864      0.00000
     15      21.9441      0.00000
     16      26.1725      0.00000

 k-point     3 :       0.2500    0.0000    0.0000
  band No.  band energies     occupation 
      1      -5.4170      2.00000
      2       1.6446      2.00000
      3       4.7386      2.00000
      4       4.7386      2.00000
      5       7.4439      0.00000
      6       8.9948      0.00000
      7       8.9948      0.00000
      8      12.1395      0.00000
      9      12.6900      0.00000
     10      12.6900      0.00000
     11      14.4159      0.00000
     12      17.1464      0.00000
     13      19.9397      0.00000
     14      19.9397      0.00000
     15      23.0525      0.00000
     16      23.0667      0.00000

 k-point     4 :       0.3750    0.0000    0.0000
  band No.  band energies     occupation 
      1      -4.5568      2.00000
      2      -0.3081      2.00000
      3       4.4215      2.00000
      4       4.4215      2.00000
      5       7.0799      0.00000
      6       8.9732      0.00000
      7       8.9732      0.00000
      8      13.3281      0.00000
      9      14.0095      0.00000
     10      14.0095      0.00000
     11      14.8958      0.00000
     12      19.0256      0.00000
     13      19.0256      0.00000
     14      19.2184      0.00000
     15      21.7822      0.00000
     16      23.7718      0.00000

 k-point     5 :       0.5000    0.0000    0.0000
  band No.  band energies     occupation 
      1      -3.9509      2.00000
      2      -1.2871      2.00000
      3       4.3125      2.00000
      4       4.3125      2.00000
      5       6.9520      0.00000
      6       8.8760      0.00000
      7       8.8760      0.00000
      8      13.2144      0.00000
      9      15.9320      0.00000
     10      15.9320      0.00000
     11      16.5438      0.00000
     12      16.6571      0.00000
     13      16.6571      0.00000
     14      18.0557      0.00000
     15      24.5017      0.00000
     16      25.0189      0.00000

 k-point     6 :       0.1250    0.1250    0.0000
  band No.  band energies     occupation 
      1      -5.9263      2.00000
      2       4.1214      2.00000
      3       4.7036      2.00000
      4       4.7036      2.00000
      5       7.5425      0.00000
      6       9.1557      0.00000
      7       9.1557      0.00000
      8       9.6285      0.00000
      9      11.9858      0.00000
     10      13.5102      0.00000
     11      14.4055      0.00000
     12      17.1177      0.00000
     13      17.1177      0.00000
     14      17.5991      0.00000
     15      22.5095      0.00000
     16      25.6674      0.00000

 k-point     7 :       0.2500    0.1250    0.0000
  band No.  band energies     occupation 
      1      -5.4727      2.00000
      2       2.3063      2.00000
      3       4.2128      2.00000
      4       4.2712      2.00000
      5       7.6601      0.00000
      6       9.0905      0.00000
      7       9.9021      0.00000
      8      10.2395      0.00000
      9      12.7693      0.00000
     10      13.6656      0.00000
     11      15.3950      0.00000
     12      16.9601      0.00000
     13      18.4896      0.00000
     14      19.7291      0.00000
     15      22.7784      0.00000
     16      23.1977      0.00000

 k-point     8 :       0.3750    0.1250    0.0000
  band No.  band energies     occupation 
      1      -4.6866      2.00000
      2       0.3195      2.00000
      3       3.6997      2.00000
      4       3.9515      2.00000
      5       7.7327      0.00000
      6       9.0789      0.00000
      7       9.9348      0.00000
      8      10.9287      0.00000
      9      14.7348      0.00000
     10      14.7360      0.00000
     11      15.1940      0.00000
     12      18.6775      0.00000
     13      18.6818      0.00000
     14      20.4157      0.00000
     15      21.9593      0.00000
     16      22.7886      0.00000

 k-point     9 :       0.5000    0.1250    0.0000
  band No.  band energies     occupation 
      1      -3.8640      2.00000
      2      -1.0843      2.00000
      3       3.2716      2.00000
      4       3.9707      2.00000
      5       7.6634      0.00000
      6       8.9863      0.00000
      7       9.6033      0.00000
      8      12.7680      0.00000
      9      14.4184      0.00000
     10      15.8539      0.00000
     11      16.8086      0.00000
     12      16.9717      0.00000
     13      17.6754      0.00000
     14      20.1790      0.00000
     15      23.4453      0.00000
     16      24.8546      0.00000

 k-point    10 :      -0.3750    0.1250    0.0000
  band No.  band energies     occupation 
      1      -4.0960      2.00000
      2      -0.7304      2.00000
      3       3.1021      2.00000
      4       4.2516      2.00000
      5       7.8035      0.00000
      6       9.1077      0.00000
      7       9.3796      0.00000
      8      13.2756      0.00000
      9      13.5307      0.00000
     10      14.5874      0.00000
     11      16.5193      0.00000
     12      17.6547      0.00000
     13      19.5272      0.00000
     14      19.8242      0.00000
     15      22.0514      0.00000
     16      23.8444      0.00000

 k-point    11 :      -0.2500    0.1250    0.0000
  band No.  band energies     occupation 
      1      -4.9818      2.00000
      2       0.9546      2.00000
      3       3.2580      2.00000
      4       4.7199      2.00000
      5       8.1376      0.00000
      6       9.1720      0.00000
      7       9.3227      0.00000
      8      11.6632      0.00000
      9      11.9822      0.00000
     10      15.1878      0.00000
     11      15.3886      0.00000
     12      17.7381      0.00000
     13      19.2550      0.00000
     14      20.7145      0.00000
     15      21.6192      0.00000
     16      23.1081      0.00000

 k-point    12 :      -0.1250    0.1250    0.0000
  band No.  band energies     occupation 
      1      -5.6675      2.00000
      2       2.8282      2.00000
      3       3.9265      2.00000
      4       5.1778      1.99999
      5       8.4483      0.00000
      6       8.6213      0.00000
      7       8.8072      0.00000
      8      10.8628      0.00000
      9      11.8762      0.00000
     10      13.4323      0.00000
     11      15.1054      0.00000
     12      16.5975      0.00000
     13      17.7372      0.00000
     14      19.7921      0.00000
     15      22.8681      0.00000
     16      23.3833      0.00000

 k-point    13 :       0.2500    0.2500    0.0000
  band No.  band energies     occupation 
      1      -5.1429      2.00000
      2       1.9829      2.00000
      3       3.6659      2.00000
      4       3.6659      2.00000
      5       6.6922      0.00000
      6       8.6628      0.00000
      7      11.1369      0.00000
      8      11.1369      0.00000
      9      13.2427      0.00000
     10      14.3948      0.00000
     11      16.7288      0.00000
     12      18.3652      0.00000
     13      18.3652      0.00000
     14      19.0988      0.00000
     15      22.5597      0.00000
     16      22.5597      0.00000

 k-point    14 :       0.3750    0.2500    0.0000
  band No.  band energies     occupation 
      1      -4.4568      2.00000
      2       0.6100      2.00000
      3       2.9190      2.00000
      4       3.3581      2.00000
      5       6.9073      0.00000
      6       8.4303      0.00000
      7      11.3460      0.00000
      8      11.6624      0.00000
      9      15.3189      0.00000
     10      15.3920      0.00000
     11      16.9797      0.00000
     12      18.4905      0.00000
     13      19.0703      0.00000
     14      20.0513      0.00000
     15      21.1891      0.00000
     16      22.3590      0.00000

 k-point    15 :       0.5000    0.2500    0.0000
  band No.  band energies     occupation 
      1      -3.5677      2.00000
      2      -0.7711      2.00000
      3       2.0880      2.00000
      4       3.3587      2.00000
      5       7.0820      0.00000
      6       9.9261      0.00000
      7      11.0850      0.00000
      8      11.3549      0.00000
      9      15.5006      0.00000
     10      15.8935      0.00000
     11      17.4782      0.00000
     12      17.8640      0.00000
     13      18.3038      0.00000
     14      22.0218      0.00000
     15      22.9537      0.00000
     16      23.6614      0.00000

 k-point    16 :      -0.3750    0.2500    0.0000
  band No.  band energies     occupation 
      1      -3.3755      2.00000
      2      -1.0148      2.00000
      3       1.6505      2.00000
      4       3.6623      2.00000
      5       7.3899      0.00000
      6      10.8476      0.00000
      7      10.9314      0.00000
      8      12.3408      0.00000
      9      13.3167      0.00000
     10      13.4172      0.00000
     11      17.9378      0.00000
     12      20.0774      0.00000
     13      20.2152      0.00000
     14      21.1822      0.00000
     15      21.6407      0.00000
     16      23.5347      0.00000

 k-point    17 :      -0.2500    0.2500    0.0000
  band No.  band energies     occupation 
      1      -4.2166      2.00000
      2       0.0979      2.00000
      3       1.8905      2.00000
      4       4.1947      2.00000
      5       7.9557      0.00000
      6      10.2418      0.00000
      7      10.5277      0.00000
      8      11.4949      0.00000
      9      11.9547      0.00000
     10      14.9518      0.00000
     11      17.9230      0.00000
     12      18.4196      0.00000
     13      18.7718      0.00000
     14      21.9078      0.00000
     15      22.2648      0.00000
     16      22.4891      0.00000

 k-point    18 :       0.3750    0.3750    0.0000
  band No.  band energies     occupation 
      1      -3.8730      2.00000
      2      -0.1785      2.00000
      3       2.9745      2.00000
      4       2.9745      2.00000
      5       6.2015      0.00596
      6       7.1274      0.00000
      7      13.3553      0.00000
      8      13.3553      0.00000
      9      15.8136      0.00000
     10      15.8631      0.00000
     11      18.2660      0.00000
     12      18.2660      0.00000
     13      18.8370      0.00000
     14      20.4922      0.00000
     15      21.2997      0.00000
     16      22.0983      0.00000

 k-point    19 :       0.5000    0.3750    0.0000
  band No.  band energies     occupation 
      1      -3.0077      2.00000
      2      -1.2292      2.00000
      3       2.1932      2.00000
      4       2.9002      2.00000
      5       6.4822      0.00000
      6       7.5158      0.00000
      7      13.6129      0.00000
      8      13.6395      0.00000
      9      16.0058      0.00000
     10      16.1389      0.00000
     11      17.6537      0.00000
     12      17.9575      0.00000
     13      20.0768      0.00000
     14      20.2183      0.00000
     15      21.2318      0.00000
     16      23.9448      0.00000

 k-point    20 :      -0.3750    0.3750    0.0000
  band No.  band energies     occupation 
      1      -2.5955      2.00000
      2      -1.6060      2.00000
      3       1.3726      2.00000
      4       3.1470      2.00000
      5       6.7817      0.00000
      6       9.6071      0.00000
      7      12.8388      0.00000
      8      13.3258      0.00000
      9      13.4996      0.00000
     10      13.9391      0.00000
     11      19.8307      0.00000
     12      20.1681      0.00000
     13      20.6800      0.00000
     14      20.9398      0.00000
     15      21.1211      0.00000
     16      22.1700      0.00000

 k-point    21 :       0.5000    0.5000    0.0000
  band No.  band energies     occupation 
      1      -2.1814      2.00000
      2      -2.1814      2.00000
      3       2.7371      2.00000
      4       2.7371      2.00000
      5       6.3073      0.00047
      6       6.3073      0.00047
      7      15.3322      0.00000
      8      15.3322      0.00000
      9      16.2978      0.00000
     10      16.2978      0.00000
     11      17.9034      0.00000
     12      17.9034      0.00000
     13      18.1237      0.00000
     14      18.1237      0.00000
     15      24.1019      0.00000
     16      24.1019      0.00000

 k-point    22 :       0.3750    0.2500    0.1250
  band No.  band energies     occupation 
      1      -4.9045      2.00000
      2       1.2512      2.00000
      3       2.8859      2.00000
      4       4.1016      2.00000
      5       7.9547      0.00000
      6       9.3020      0.00000
      7       9.7165      0.00000
      8      10.8943      0.00000
      9      13.1682      0.00000
     10      15.5041      0.00000
     11      16.3976      0.00000
     12      17.5093      0.00000
     13      19.1500      0.00000
     14      20.3580      0.00000
     15      21.0973      0.00000
     16      23.3618      0.00000

 k-point    23 :       0.5000    0.2500    0.1250
  band No.  band energies     occupation 
      1      -4.0492      2.00000
      2      -0.2409      2.00000
      3       2.2888      2.00000
      4       3.6284      2.00000
      5       8.3702      0.00000
      6       9.0271      0.00000
      7      10.4649      0.00000
      8      11.3358      0.00000
      9      14.3683      0.00000
     10      15.0603      0.00000
     11      17.3565      0.00000
     12      18.1111      0.00000
     13      19.4612      0.00000
     14      20.3909      0.00000
     15      22.4960      0.00000
     16      23.3091      0.00000

 k-point    24 :      -0.3750    0.2500    0.1250
  band No.  band energies     occupation 
      1      -3.4282      2.00000
      2      -1.1407      2.00000
      3       2.1567      2.00000
      4       3.4115      2.00000
      5       8.5132      0.00000
      6       8.6676      0.00000
      7      11.3071      0.00000
      8      12.5233      0.00000
      9      12.7640      0.00000
     10      15.9472      0.00000
     11      16.9605      0.00000
     12      17.7060      0.00000
     13      20.6095      0.00000
     14      20.7552      0.00000
     15      23.2583      0.00000
     16      23.6420      0.00000

 k-point    25 :       0.5000    0.3750    0.1250
  band No.  band energies     occupation 
      1      -3.6836      2.00000
      2      -0.3907      2.00000
      3       2.2619      2.00000
      4       2.8411      2.00000
      5       7.4782      0.00000
      6       8.1866      0.00000
      7      11.1440      0.00000
      8      13.3083      0.00000
      9      15.4739      0.00000
     10      15.5283      0.00000
     11      18.0505      0.00000
     12      18.5735      0.00000
     13      19.4725      0.00000
     14      19.9585      0.00000
     15      21.8787      0.00000
     16      22.2883      0.00000

 k-point    26 :      -0.3750    0.3750    0.1250
  band No.  band energies     occupation 
      1      -2.8459      2.00000
      2      -1.3233      2.00000
      3       1.5982      2.00000
      4       2.6501      2.00000
      5       7.9165      0.00000
      6       9.7633      0.00000
      7      10.6840      0.00000
      8      12.8018      0.00000
      9      13.7291      0.00000
     10      16.3565      0.00000
     11      17.4671      0.00000
     12      19.6155      0.00000
     13      20.5653      0.00000
     14      21.1154      0.00000
     15      22.7770      0.00000
     16      23.5732      0.00000

 k-point    27 :      -0.2500    0.3750    0.1250
  band No.  band energies     occupation 
      1      -3.1841      2.00000
      2      -0.9702      2.00000
      3       1.4398      2.00000
      4       3.0080      2.00000
      5       8.3773      0.00000
      6       9.9975      0.00000
      7      10.6475      0.00000
      8      12.4209      0.00000
      9      13.1902      0.00000
     10      14.5771      0.00000
     11      19.3163      0.00000
     12      19.5696      0.00000
     13      19.8866      0.00000
     14      21.4082      0.00000
     15      21.7084      0.00000
     16      23.4538      0.00000

 k-point    28 :      -0.3750    0.5000    0.1250
  band No.  band energies     occupation 
      1      -2.1106      2.00000
      2      -2.1106      2.00000
      3       2.2119      2.00000
      4       2.2119      2.00000
      5       7.5144      0.00000
      6       7.5144      0.00000
      7      13.1915      0.00000
      8      13.1915      0.00000
      9      15.8439      0.00000
     10      15.8439      0.00000
     11      18.1172      0.00000
     12      18.1172      0.00000
     13      20.7194      0.00000
     14      20.7194      0.00000
     15      22.6536      0.00000
     16      22.6536      0.00000

 k-point    29 :      -0.2500    0.5000    0.2500
  band No.  band energies     occupation 
      1      -2.0332      2.00000
      2      -2.0332      2.00000
      3       1.8031      2.00000
      4       1.8031      2.00000
      5       9.7651      0.00000
      6       9.7651      0.00000
      7      10.4083      0.00000
      8      10.4083      0.00000
      9      15.8410      0.00000
     10      15.8410      0.00000
     11      18.2569      0.00000
     12      18.2569      0.00000
     13      21.7412      0.00000
     14      21.7412      0.00000
     15      23.7816      0.00000
     16      23.7833      0.00000


--------------------------------------------------------------------------------------------------------


 soft charge-density along one line, spin component           1
         0         1         2         3         4         5         6         7         8         9
 total charge-density along one line

 pseudopotential strength for first ion, spin component:           1
 18.545  25.870  -0.000  -0.000  -0.000  -0.000  -0.000  -0.000
 25.870  36.091  -0.000  -0.000  -0.000  -0.000  -0.000  -0.000
 -0.000  -0.000   4.200  -0.000  -0.000   7.819  -0.000  -0.000
 -0.000  -0.000  -0.000   4.200  -0.000  -0.000   7.819  -0.000
 -0.000  -0.000  -0.000  -0.000   4.200  -0.000  -0.000   7.819
 -0.000  -0.000   7.819  -0.000  -0.000  14.567  -0.000  -0.000
 -0.000  -0.000  -0.000   7.819  -0.000  -0.000  14.567  -0.000
 -0.000  -0.000  -0.000  -0.000   7.819  -0.000  -0.000  14.567
 total augmentation occupancy for first ion, spin component:           1
  3.172  -0.923  -0.000   0.000   0.000   0.000   0.000   0.000
 -0.923   0.473  -0.000  -0.000  -0.000   0.000  -0.000  -0.000
 -0.000  -0.000   2.220   0.000  -0.000  -0.395  -0.000  -0.000
  0.000  -0.000   0.000   2.220   0.000   0.000  -0.395   0.000
  0.000  -0.000  -0.000   0.000   2.220   0.000   0.000  -0.395
  0.000   0.000  -0.395   0.000   0.000   0.081   0.000   0.000
  0.000  -0.000  -0.000  -0.395  -0.000  -0.000   0.081  -0.000
 -0.000   0.000  -0.000   0.000  -0.395  -0.000  -0.000   0.081


------------------------ aborting loop because EDIFF is reached ----------------------------------------


    CHARGE:  cpu time    0.0360: real time    0.0340
    FORLOC:  cpu time    0.0000: real time    0.0005
    FORNL :  cpu time    0.0400: real time    0.0394
    STRESS:  cpu time    0.4520: real time    0.4496
    FORCOR:  cpu time    1.6280: real time    1.6263
    FORHAR:  cpu time    0.0040: real time    0.0040
    MIXING:  cpu time    0.0000: real time    0.0007
    OFIELD:  cpu time    0.0000: real time    0.0000

  FORCE on cell =-STRESS in cart. coord.  units (eV):
  Direction    XX          YY          ZZ          XY          YZ          ZX
  --------------------------------------------------------------------------------------
  Alpha Z     3.24858     3.24858     3.24858
  Ewald     -75.30526   -75.30526   -75.30526     0.00000    -0.00000    -0.00000
  Hartree     5.18104     5.18104     5.18104     0.00000     0.00000     0.00000
  E(xc)     -25.30879   -25.30879   -25.30879    -0.00000    -0.00000    -0.00000
  Local     -29.75381   -29.75381   -29.75381     0.00001     0.00001     0.00001
  n-local    78.73535    79.89170    74.20170     2.19613    -1.18925     0.59790
  augment   -11.97088   -11.97088   -11.97088    -0.00001    -0.00001    -0.00001
  Kinetic    58.32965    56.14798    54.42198     3.50703    -0.80523     0.99812
  Fock        0.00000     0.00000     0.00000     0.00000     0.00000     0.00000
  -------------------------------------------------------------------------------------
  Total       0.00034     0.00034     0.00034     0.00000     0.00000    -0.00000
  in kB       0.01304     0.01304     0.01304     0.00000     0.00000    -0.00000
  external pressure =        0.01 kB  Pullay stress =        0.00 kB


 VOLUME and BASIS-vectors are now :
 -----------------------------------------------------------------------------
  energy-cutoff  :      500.00
  volume of cell :       41.45
      direct lattice vectors                 reciprocal lattice vectors
     0.000000000  2.746821138  2.746821138    -0.182028598  0.182028598  0.182028598
     2.746821138  0.000000000  2.746821138     0.182028598 -0.182028598  0.182028598
     2.746821138  2.746821138  0.000000000     0.182028598  0.182028598 -0.182028598

  length of vectors
     3.884591706  3.884591706  3.884591706     0.315282780  0.315282780  0.315282780


 FORCES acting on ions
    electron-ion (+dipol)            ewald-force                    non-local-force                 convergence-correction
 -----------------------------------------------------------------------------------------------
   0.985E-08 0.985E-08 0.107E-07   -.313E-14 -.268E-14 -.153E-14   -.146E-15 -.625E-16 -.101E-15   -.249E-12 -.251E-12 -.253E-12
   -.985E-08 -.985E-08 -.107E-07   0.307E-14 0.301E-14 0.222E-14   0.146E-15 0.833E-16 0.104E-15   0.252E-12 0.251E-12 0.253E-12
 -----------------------------------------------------------------------------------------------
   0.528E-14 0.699E-13 -.127E-12   -.615E-16 0.330E-15 0.690E-15   0.000E+00 0.208E-16 0.347E-17   0.309E-14 0.183E-15 0.118E-15


 POSITION                                       TOTAL-FORCE (eV/Angst)
 -----------------------------------------------------------------------------------
      4.12023      4.12023      4.12023        -0.000000      0.000000     -0.000000
      2.74682      2.74682      2.74682         0.000000     -0.000000      0.000000
 -----------------------------------------------------------------------------------
    total drift:                                0.000000      0.000000     -0.000000


--------------------------------------------------------------------------------------------------------



  FREE ENERGIE OF THE ION-ELECTRON SYSTEM (eV)
  ---------------------------------------------------
  free  energy   TOTEN  =        -8.33492058 eV

  energy  without entropy=       -8.33485735  energy(sigma->0) =       -8.33488897



--------------------------------------------------------------------------------------------------------


    POTLOK:  cpu time    1.6600: real time    1.6603


--------------------------------------------------------------------------------------------------------




--------------------------------------------------------------------------------------------------------


  
 reached required accuracy - stopping structural energy minimisation
     LOOP+:  cpu time   32.0560: real time   33.6243
    4ORBIT:  cpu time    0.0000: real time    0.0000

 total amount of memory used by VASP on root node    34557. kBytes
========================================================================

   base      :      30000. kBytes
   nonl-proj :       2023. kBytes
   fftplans  :        517. kBytes
   grid      :       1507. kBytes
   one-center:          6. kBytes
   wavefun   :        504. kBytes

  
  
 General timing and accounting informations for this job:
 ========================================================
  
                  Total CPU time used (sec):       32.700
                            User time (sec):       32.364
                          System time (sec):        0.336
                         Elapsed time (sec):       35.558
  
                   Maximum memory used (kb):      113192.
                   Average memory used (kb):           0.
  
                          Minor page faults:       195107
                          Major page faults:            5
                 Voluntary context switches:          253
