<?xml version="1.0" encoding="ISO-8859-1"?>
<modeling>
 <generator>
  <i name="program" type="string">vasp </i>
  <i name="version" type="string">5.4.1  </i>
  <i name="subversion" type="string">24Jun15 (build Feb  9 2019 14:16:27) complex                          parallel </i>
  <i name="platform" type="string">IFC91_ompi </i>
  <i name="date" type="string">2020 09 26 </i>
  <i name="time" type="string">22:28:50 </i>
 </generator>
 <incar>
  <i type="string" name="PREC">accurate</i>
  <i type="int" name="NELM">   400</i>
  <i type="int" name="IBRION">     2</i>
  <i name="EDIFF">      0.00000010</i>
  <i type="int" name="NSW">     1</i>
  <i type="int" name="ISIF">     2</i>
  <i name="ENCUT">    500.00000000</i>
  <i type="int" name="ISMEAR">     0</i>
  <i type="logical" name="LWAVE"> F  </i>
  <i type="logical" name="LCHARG"> F  </i>
  <v type="int" name="KPOINT_BSE">    -1     0     0     0</v>
  <i type="int" name="NELM">   400</i>
  <i type="string" name="GGA">BO</i>
  <i name="PARAM1">      0.18333333</i>
  <i name="PARAM2">      0.22000000</i>
  <i type="logical" name="LUSE_VDW"> T  </i>
  <i name="AGGAC">      0.00000000</i>
 </incar>
 <kpoints>
  <generation param="Gamma">
   <v type="int" name="divisions">       8        8        8 </v>
   <v name="usershift">      0.00000000       0.00000000       0.00000000 </v>
   <v name="genvec1">      0.12500000       0.00000000       0.00000000 </v>
   <v name="genvec2">      0.00000000       0.12500000       0.00000000 </v>
   <v name="genvec3">      0.00000000       0.00000000       0.12500000 </v>
   <v name="shift">      0.00000000       0.00000000       0.00000000 </v>
  </generation>
  <varray name="kpointlist" >
   <v>       0.00000000       0.00000000       0.00000000 </v>
   <v>       0.12500000       0.00000000       0.00000000 </v>
   <v>       0.25000000       0.00000000       0.00000000 </v>
   <v>       0.37500000       0.00000000       0.00000000 </v>
   <v>       0.50000000       0.00000000       0.00000000 </v>
   <v>       0.12500000       0.12500000       0.00000000 </v>
   <v>       0.25000000       0.12500000       0.00000000 </v>
   <v>       0.37500000       0.12500000       0.00000000 </v>
   <v>       0.50000000       0.12500000       0.00000000 </v>
   <v>      -0.37500000       0.12500000       0.00000000 </v>
   <v>      -0.25000000       0.12500000       0.00000000 </v>
   <v>      -0.12500000       0.12500000       0.00000000 </v>
   <v>       0.25000000       0.25000000       0.00000000 </v>
   <v>       0.37500000       0.25000000       0.00000000 </v>
   <v>       0.50000000       0.25000000       0.00000000 </v>
   <v>      -0.37500000       0.25000000       0.00000000 </v>
   <v>      -0.25000000       0.25000000       0.00000000 </v>
   <v>       0.37500000       0.37500000       0.00000000 </v>
   <v>       0.50000000       0.37500000       0.00000000 </v>
   <v>      -0.37500000       0.37500000       0.00000000 </v>
   <v>       0.50000000       0.50000000       0.00000000 </v>
   <v>       0.37500000       0.25000000       0.12500000 </v>
   <v>       0.50000000       0.25000000       0.12500000 </v>
   <v>      -0.37500000       0.25000000       0.12500000 </v>
   <v>       0.50000000       0.37500000       0.12500000 </v>
   <v>      -0.37500000       0.37500000       0.12500000 </v>
   <v>      -0.25000000       0.37500000       0.12500000 </v>
   <v>      -0.37500000       0.50000000       0.12500000 </v>
   <v>      -0.25000000       0.50000000       0.25000000 </v>
  </varray>
  <varray name="weights" >
   <v>       0.00195312 </v>
   <v>       0.01562500 </v>
   <v>       0.01562500 </v>
   <v>       0.01562500 </v>
   <v>       0.00781250 </v>
   <v>       0.01171875 </v>
   <v>       0.04687500 </v>
   <v>       0.04687500 </v>
   <v>       0.04687500 </v>
   <v>       0.04687500 </v>
   <v>       0.04687500 </v>
   <v>       0.02343750 </v>
   <v>       0.01171875 </v>
   <v>       0.04687500 </v>
   <v>       0.04687500 </v>
   <v>       0.04687500 </v>
   <v>       0.02343750 </v>
   <v>       0.01171875 </v>
   <v>       0.04687500 </v>
   <v>       0.02343750 </v>
   <v>       0.00585938 </v>
   <v>       0.04687500 </v>
   <v>       0.09375000 </v>
   <v>       0.04687500 </v>
   <v>       0.04687500 </v>
   <v>       0.09375000 </v>
   <v>       0.04687500 </v>
   <v>       0.02343750 </v>
   <v>       0.01171875 </v>
  </varray>
 </kpoints>
 <parameters>
  <separator name="general" >
   <i type="string" name="SYSTEM">unknown system</i>
   <i type="logical" name="LCOMPAT"> F  </i>
  </separator>
  <separator name="electronic" >
   <i type="string" name="PREC">accura</i>
   <i name="ENMAX">    500.00000000</i>
   <i name="ENAUG">    322.06900000</i>
   <i name="EDIFF">      0.00000010</i>
   <i type="int" name="IALGO">    38</i>
   <i type="int" name="IWAVPR">    11</i>
   <i type="int" name="NBANDS">    16</i>
   <i name="NELECT">      8.00000000</i>
   <i type="int" name="TURBO">     0</i>
   <i type="int" name="IRESTART">     0</i>
   <i type="int" name="NREBOOT">     0</i>
   <i type="int" name="NMIN">     0</i>
   <i name="EREF">      0.00000000</i>
   <separator name="electronic smearing" >
    <i type="int" name="ISMEAR">     0</i>
    <i name="SIGMA">      0.20000000</i>
    <i name="KSPACING">      0.50000000</i>
    <i type="logical" name="KGAMMA"> T  </i>
   </separator>
   <separator name="electronic projectors" >
    <i type="logical" name="LREAL"> F  </i>
    <v name="ROPT">      0.00000000</v>
    <i type="int" name="LMAXPAW">  -100</i>
    <i type="int" name="LMAXMIX">     2</i>
    <i type="logical" name="NLSPLINE"> F  </i>
   </separator>
   <separator name="electronic startup" >
    <i type="int" name="ISTART">     0</i>
    <i type="int" name="ICHARG">     2</i>
    <i type="int" name="INIWAV">     1</i>
   </separator>
   <separator name="electronic spin" >
    <i type="int" name="ISPIN">     1</i>
    <i type="logical" name="LNONCOLLINEAR"> F  </i>
    <v name="MAGMOM">      1.00000000      1.00000000</v>
    <i name="NUPDOWN">     -1.00000000</i>
    <i type="logical" name="LSORBIT"> F  </i>
    <v name="SAXIS">      0.00000000      0.00000000      1.00000000</v>
    <i type="logical" name="LSPIRAL"> F  </i>
    <v name="QSPIRAL">      0.00000000      0.00000000      0.00000000</v>
    <i type="logical" name="LZEROZ"> F  </i>
   </separator>
   <separator name="electronic exchange-correlation" >
    <i type="logical" name="LASPH"> F  </i>
    <i type="logical" name="LMETAGGA"> F  </i>
   </separator>
   <separator name="electronic convergence" >
    <i type="int" name="NELM">   400</i>
    <i type="int" name="NELMDL">    -5</i>
    <i type="int" name="NELMIN">     2</i>
    <i name="ENINI">    500.00000000</i>
    <separator name="electronic convergence detail" >
     <i type="logical" name="LDIAG"> T  </i>
     <i type="logical" name="LSUBROT"> F  </i>
     <i name="WEIMIN">      0.00100000</i>
     <i name="EBREAK">      0.00000000</i>
     <i name="DEPER">      0.30000000</i>
     <i type="int" name="NRMM">     4</i>
     <i name="TIME">      0.40000000</i>
    </separator>
   </separator>
   <separator name="electronic mixer" >
    <i name="AMIX">      0.40000000</i>
    <i name="BMIX">      1.00000000</i>
    <i name="AMIN">      0.10000000</i>
    <i name="AMIX_MAG">      1.60000000</i>
    <i name="BMIX_MAG">      1.00000000</i>
    <separator name="electronic mixer details" >
     <i type="int" name="IMIX">     4</i>
     <i type="logical" name="MIXFIRST"> F  </i>
     <i type="int" name="MAXMIX">   -45</i>
     <i name="WC">    100.00000000</i>
     <i type="int" name="INIMIX">     1</i>
     <i type="int" name="MIXPRE">     1</i>
     <i type="int" name="MREMOVE">     5</i>
    </separator>
   </separator>
   <separator name="electronic dipolcorrection" >
    <i type="logical" name="LDIPOL"> F  </i>
    <i type="logical" name="LMONO"> F  </i>
    <i type="int" name="IDIPOL">     0</i>
    <i name="EPSILON">      1.00000000</i>
    <v name="DIPOL">   -100.00000000   -100.00000000   -100.00000000</v>
    <i name="EFIELD">      0.00000000</i>
   </separator>
  </separator>
  <separator name="grids" >
   <i type="int" name="NGX">    28</i>
   <i type="int" name="NGY">    28</i>
   <i type="int" name="NGZ">    28</i>
   <i type="int" name="NGXF">    56</i>
   <i type="int" name="NGYF">    56</i>
   <i type="int" name="NGZF">    56</i>
   <i type="logical" name="ADDGRID"> F  </i>
  </separator>
  <separator name="ionic" >
   <i type="int" name="NSW">     1</i>
   <i type="int" name="IBRION">     2</i>
   <i type="int" name="ISIF">     2</i>
   <i name="PSTRESS">      0.00000000</i>
   <i name="EDIFFG">      0.00000100</i>
   <i type="int" name="NFREE">     1</i>
   <i name="POTIM">      0.50000000</i>
   <i name="SMASS">     -3.00000000</i>
   <i name="SCALEE">      1.00000000</i>
  </separator>
  <separator name="ionic md" >
   <i name="TEBEG">      0.00010000</i>
   <i name="TEEND">      0.00010000</i>
   <i type="int" name="NBLOCK">     1</i>
   <i type="int" name="KBLOCK">     1</i>
   <i type="int" name="NPACO">   256</i>
   <i name="APACO">     16.00000000</i>
  </separator>
  <separator name="symmetry" >
   <i type="int" name="ISYM">     2</i>
   <i name="SYMPREC">      0.00001000</i>
  </separator>
  <separator name="dos" >
   <i type="logical" name="LORBIT"> T  </i>
   <v name="RWIGS">     -1.00000000</v>
   <i type="int" name="NEDOS">   301</i>
   <i name="EMIN">     10.00000000</i>
   <i name="EMAX">    -10.00000000</i>
   <i name="EFERMI">      0.00000000</i>
  </separator>
  <separator name="writing" >
   <i type="int" name="NWRITE">     2</i>
   <i type="logical" name="LWAVE"> F  </i>
   <i type="logical" name="LCHARG"> F  </i>
   <i type="logical" name="LPARD"> F  </i>
   <i type="logical" name="LVTOT"> F  </i>
   <i type="logical" name="LVHAR"> F  </i>
   <i type="logical" name="LELF"> F  </i>
   <i type="logical" name="LOPTICS"> F  </i>
   <v name="STM">      0.00000000      0.00000000      0.00000000      0.00000000      0.00000000      0.00000000      0.00000000</v>
  </separator>
  <separator name="performance" >
   <i type="int" name="NPAR">    16</i>
   <i type="int" name="NSIM">     4</i>
   <i type="int" name="NBLK">    -1</i>
   <i type="logical" name="LPLANE"> T  </i>
   <i type="logical" name="LSCALAPACK"> T  </i>
   <i type="logical" name="LSCAAWARE"> F  </i>
   <i type="logical" name="LSCALU"> F  </i>
   <i type="logical" name="LASYNC"> F  </i>
   <i type="logical" name="LORBITALREAL"> F  </i>
  </separator>
  <separator name="miscellaneous" >
   <i type="int" name="IDIOT">     3</i>
   <i type="logical" name="LMUSIC"> F  </i>
   <v name="POMASS">     28.08500000</v>
   <v name="DARWINR">      0.00000000</v>
   <v name="DARWINV">      1.00000000</v>
   <i type="logical" name="LCORR"> T  </i>
  </separator>
  <i type="logical" name="GGA_COMPAT"> T  </i>
  <i type="logical" name="LBERRY"> F  </i>
  <i type="int" name="ICORELEVEL">     0</i>
  <i type="logical" name="LDAU"> F  </i>
  <i type="int" name="I_CONSTRAINED_M">     0</i>
  <separator name="electronic exchange-correlation" >
   <i type="string" name="GGA">BO</i>
   <i type="int" name="VOSKOWN">     0</i>
   <i type="logical" name="LHFCALC"> F  </i>
   <i type="string" name="PRECFOCK"></i>
   <i type="logical" name="LSYMGRAD"> F  </i>
   <i type="logical" name="LHFONE"> F  </i>
   <i type="logical" name="LRHFCALC"> F  </i>
   <i type="logical" name="LTHOMAS"> F  </i>
   <i type="logical" name="LMODELHF"> F  </i>
   <i name="ENCUT4O">     -1.00000000</i>
   <i type="int" name="EXXOEP">     0</i>
   <i type="int" name="FOURORBIT">     0</i>
   <i name="AEXX">      0.00000000</i>
   <i name="HFALPHA">      0.00000000</i>
   <i name="MCALPHA">      0.00000000</i>
   <i name="ALDAX">      1.00000000</i>
   <i name="AGGAX">      1.00000000</i>
   <i name="ALDAC">      1.00000000</i>
   <i name="AGGAC">      0.00000000</i>
   <i type="int" name="NKREDX">     1</i>
   <i type="int" name="NKREDY">     1</i>
   <i type="int" name="NKREDZ">     1</i>
   <i type="logical" name="SHIFTRED"> F  </i>
   <i type="logical" name="ODDONLY"> F  </i>
   <i type="logical" name="EVENONLY"> F  </i>
   <i type="int" name="LMAXFOCK">     0</i>
   <i type="int" name="NMAXFOCKAE">     0</i>
   <i type="logical" name="LFOCKAEDFT"> F  </i>
   <i name="HFSCREEN">      0.00000000</i>
   <i name="HFSCREENC">      0.00000000</i>
   <i type="int" name="NBANDSGWLOW">     0</i>
  </separator>
  <separator name="vdW DFT" >
   <i type="logical" name="LUSE_VDW"> T  </i>
   <i name="Zab_VDW">     -0.84910000</i>
   <i name="PARAM1">      0.18333333</i>
   <i name="PARAM2">      0.22000000</i>
   <i name="PARAM3">      0.00000000</i>
  </separator>
  <separator name="model GW" >
   <i type="int" name="MODEL_GW">     0</i>
   <i name="MODEL_EPS0">     12.43490274</i>
   <i name="MODEL_ALPHA">      1.00000000</i>
  </separator>
  <separator name="linear response parameters" >
   <i type="logical" name="LEPSILON"> F  </i>
   <i type="logical" name="LRPA"> F  </i>
   <i type="logical" name="LNABLA"> F  </i>
   <i type="logical" name="LVEL"> F  </i>
   <i type="int" name="KINTER">     0</i>
   <i name="CSHIFT">      0.10000000</i>
   <i name="OMEGAMAX">     -1.00000000</i>
   <i name="DEG_THRESHOLD">      0.00200000</i>
  </separator>
  <separator name="orbital magnetization" >
   <i type="logical" name="NUCIND"> F  </i>
   <v name="MAGPOS">      0.00000000      0.00000000      0.00000000</v>
   <i type="logical" name="LNICSALL"> T  </i>
   <i type="logical" name="ORBITALMAG"> F  </i>
   <i type="logical" name="LMAGBLOCH"> F  </i>
   <i type="logical" name="LCHIMAG"> F  </i>
   <i type="logical" name="LGAUGE"> T  </i>
   <i type="int" name="MAGATOM">     0</i>
   <v name="MAGDIPOL">      0.00000000      0.00000000      0.00000000</v>
   <v name="AVECCONST">      0.00000000      0.00000000      0.00000000</v>
  </separator>
  <separator name="response functions" >
   <i type="logical" name="LADDER"> F  </i>
   <i type="logical" name="LFXC"> F  </i>
   <i type="logical" name="LHARTREE"> T  </i>
   <i type="int" name="IBSE">     0</i>
   <v type="int" name="KPOINT">    -1     0     0     0</v>
   <i type="logical" name="LTCTE"> F  </i>
   <i type="logical" name="LTETE"> F  </i>
   <i type="logical" name="LTRIPLET"> F  </i>
   <i type="logical" name="LFXCEPS"> F  </i>
   <i type="logical" name="LFXHEG"> F  </i>
   <i type="int" name="NATURALO">     0</i>
   <i type="logical" name="L2ORDER"> F  </i>
   <i type="logical" name="LUSEW"> F  </i>
   <i name="ENCUTGW">     -2.00000000</i>
   <i name="ENCUTGWSOFT">     -2.00000000</i>
   <i name="ENCUTLF">     -1.00000000</i>
   <i type="int" name="LMAXMP2">    -1</i>
   <i name="SCISSOR">      0.00000000</i>
   <i type="int" name="NOMEGA">     0</i>
   <i type="int" name="NOMEGAR">     0</i>
   <i type="int" name="NBANDSGW">    -1</i>
   <i type="int" name="NBANDSO">    -1</i>
   <i type="int" name="NBANDSV">    -1</i>
   <i type="int" name="NELM">   400</i>
   <i type="int" name="NELMHF">     1</i>
   <i type="int" name="DIM">     3</i>
   <i type="int" name="ANTIRES">     0</i>
   <i name="OMEGAMAX">    -30.00000000</i>
   <i name="OMEGAMIN">    -30.00000000</i>
   <i name="OMEGATL">   -200.00000000</i>
   <i type="int" name="OMEGAGRID">     0</i>
   <i name="CSHIFT">     -0.10000000</i>
   <i type="logical" name="SELFENERGY"> F  </i>
   <i type="logical" name="LSPECTRAL"> F  </i>
   <i type="logical" name="LSPECTRALGW"> F  </i>
   <i type="logical" name="LSINGLES"> F  </i>
   <i type="logical" name="LFERMIGW"> F  </i>
   <i type="logical" name="ODDONLYGW"> F  </i>
   <i type="logical" name="EVENONLYGW"> F  </i>
   <i type="int" name="NKREDLFX">     1</i>
   <i type="int" name="NKREDLFY">     1</i>
   <i type="int" name="NKREDLFZ">     1</i>
   <i type="int" name="MAXMEM">  1800</i>
   <i type="int" name="TELESCOPE">     0</i>
   <i type="int" name="TAUPAR">     1</i>
   <i type="int" name="OMEGAPAR">    -1</i>
   <i name="LAMBDA">      1.00000000</i>
  </separator>
  <separator name="External order field" >
   <i name="OFIELD_KAPPA">      0.00000000</i>
   <v name="OFIELD_K">      0.00000000      0.00000000      0.00000000</v>
   <i name="OFIELD_Q6_NEAR">      0.00000000</i>
   <i name="OFIELD_Q6_FAR">      0.00000000</i>
   <i name="OFIELD_A">      0.00000000</i>
  </separator>
 </parameters>
 <atominfo>
  <atoms>       2 </atoms>
  <types>       1 </types>
  <array name="atoms" >
   <dimension dim="1">ion</dimension>
   <field type="string">element</field>
   <field type="int">atomtype</field>
   <set>
    <rc><c>Si</c><c>   1</c></rc>
    <rc><c>Si</c><c>   1</c></rc>
   </set>
  </array>
  <array name="atomtypes" >
   <dimension dim="1">type</dimension>
   <field type="int">atomspertype</field>
   <field type="string">element</field>
   <field>mass</field>
   <field>valence</field>
   <field type="string">pseudopotential</field>
   <set>
    <rc><c>   2</c><c>Si</c><c>     28.08500000</c><c>      4.00000000</c><c>  PAW_PBE Si 05Jan2001                  </c></rc>
   </set>
  </array>
 </atominfo>
 <structure name="initialpos" >
  <crystal>
   <varray name="basis" >
    <v>       0.00000000       2.74682114       2.74682114 </v>
    <v>       2.74682114       0.00000000       2.74682114 </v>
    <v>       2.74682114       2.74682114       0.00000000 </v>
   </varray>
   <i name="volume">     41.44967579 </i>
   <varray name="rec_basis" >
    <v>      -0.18202860       0.18202860       0.18202860 </v>
    <v>       0.18202860      -0.18202860       0.18202860 </v>
    <v>       0.18202860       0.18202860      -0.18202860 </v>
   </varray>
  </crystal>
  <varray name="positions" >
   <v>       0.75000000       0.75000000       0.75000000 </v>
   <v>       0.50000000       0.50000000       0.50000000 </v>
  </varray>
 </structure>
 <calculation>
  <scstep>
   <time name="dav">    0.38    0.39</time>
   <time name="total">    2.50    2.50</time>
   <energy>
    <i name="alphaZ">      3.24857844 </i>
    <i name="ewald">   -225.91568183 </i>
    <i name="hartreedc">    -11.53197166 </i>
    <i name="XCdc">    -20.29573795 </i>
    <i name="pawpsdc">    189.40224250 </i>
    <i name="pawaedc">   -152.61488262 </i>
    <i name="eentropy">     -0.01474898 </i>
    <i name="bandstr">     12.35462187 </i>
    <i name="atom">    208.59373829 </i>
    <i name="e_fr_energy">      3.22615806 </i>
    <i name="e_wo_entrp">      3.24090703 </i>
    <i name="e_0_energy">      3.23353255 </i>
   </energy>
  </scstep>
  <scstep>
   <time name="dav">    0.64    0.64</time>
   <time name="total">    0.64    0.92</time>
   <energy>
    <i name="e_fr_energy">     -8.32648619 </i>
    <i name="e_wo_entrp">     -8.32648190 </i>
    <i name="e_0_energy">     -8.32648404 </i>
   </energy>
  </scstep>
  <scstep>
   <time name="dav">    0.49    0.49</time>
   <time name="total">    0.49    0.50</time>
   <energy>
    <i name="e_fr_energy">     -8.40605119 </i>
    <i name="e_wo_entrp">     -8.40604782 </i>
    <i name="e_0_energy">     -8.40604951 </i>
   </energy>
  </scstep>
  <scstep>
   <time name="dav">    0.91    0.91</time>
   <time name="total">    0.91    0.98</time>
   <energy>
    <i name="e_fr_energy">     -8.40630500 </i>
    <i name="e_wo_entrp">     -8.40630163 </i>
    <i name="e_0_energy">     -8.40630332 </i>
   </energy>
  </scstep>
  <scstep>
   <time name="dav">    0.48    0.47</time>
   <time name="total">    0.51    0.53</time>
   <energy>
    <i name="e_fr_energy">     -8.40630501 </i>
    <i name="e_wo_entrp">     -8.40630164 </i>
    <i name="e_0_energy">     -8.40630333 </i>
   </energy>
  </scstep>
  <scstep>
   <time name="dav">    0.57    0.57</time>
   <time name="total">    2.22    2.24</time>
   <energy>
    <i name="e_fr_energy">     -8.35647050 </i>
    <i name="e_wo_entrp">     -8.35645732 </i>
    <i name="e_0_energy">     -8.35646391 </i>
   </energy>
  </scstep>
  <scstep>
   <time name="dav">    0.54    0.55</time>
   <time name="total">    2.19    2.23</time>
   <energy>
    <i name="e_fr_energy">     -8.35042989 </i>
    <i name="e_wo_entrp">     -8.35034707 </i>
    <i name="e_0_energy">     -8.35038848 </i>
   </energy>
  </scstep>
  <scstep>
   <time name="dav">    0.46    0.46</time>
   <time name="total">    2.11    2.14</time>
   <energy>
    <i name="e_fr_energy">     -8.33399257 </i>
    <i name="e_wo_entrp">     -8.33393295 </i>
    <i name="e_0_energy">     -8.33396276 </i>
   </energy>
  </scstep>
  <scstep>
   <time name="dav">    0.56    0.56</time>
   <time name="total">    2.20    2.24</time>
   <energy>
    <i name="e_fr_energy">     -8.33511123 </i>
    <i name="e_wo_entrp">     -8.33504666 </i>
    <i name="e_0_energy">     -8.33507895 </i>
   </energy>
  </scstep>
  <scstep>
   <time name="dav">    0.41    0.41</time>
   <time name="total">    2.04    2.08</time>
   <energy>
    <i name="e_fr_energy">     -8.33511052 </i>
    <i name="e_wo_entrp">     -8.33504715 </i>
    <i name="e_0_energy">     -8.33507884 </i>
   </energy>
  </scstep>
  <scstep>
   <time name="dav">    0.82    0.82</time>
   <time name="total">    2.47    2.54</time>
   <energy>
    <i name="e_fr_energy">     -8.33493265 </i>
    <i name="e_wo_entrp">     -8.33486937 </i>
    <i name="e_0_energy">     -8.33490101 </i>
   </energy>
  </scstep>
  <scstep>
   <time name="dav">    0.41    0.41</time>
   <time name="total">    2.08    2.15</time>
   <energy>
    <i name="e_fr_energy">     -8.33492309 </i>
    <i name="e_wo_entrp">     -8.33485984 </i>
    <i name="e_0_energy">     -8.33489146 </i>
   </energy>
  </scstep>
  <scstep>
   <time name="dav">    0.50    0.50</time>
   <time name="total">    2.13    2.20</time>
   <energy>
    <i name="e_fr_energy">     -8.33492029 </i>
    <i name="e_wo_entrp">     -8.33485707 </i>
    <i name="e_0_energy">     -8.33488868 </i>
   </energy>
  </scstep>
  <scstep>
   <time name="dav">    0.24    0.24</time>
   <time name="total">    1.92    1.97</time>
   <energy>
    <i name="e_fr_energy">     -8.33492080 </i>
    <i name="e_wo_entrp">     -8.33485757 </i>
    <i name="e_0_energy">     -8.33488919 </i>
   </energy>
  </scstep>
  <scstep>
   <time name="dav">    0.29    0.29</time>
   <time name="total">    1.95    1.99</time>
   <energy>
    <i name="e_fr_energy">     -8.33492060 </i>
    <i name="e_wo_entrp">     -8.33485737 </i>
    <i name="e_0_energy">     -8.33488898 </i>
   </energy>
  </scstep>
  <scstep>
   <time name="dav">    0.24    0.24</time>
   <time name="total">    1.87    2.04</time>
   <energy>
    <i name="alphaZ">      3.24857844 </i>
    <i name="ewald">   -225.91568183 </i>
    <i name="hartreedc">    -15.54312392 </i>
    <i name="XCdc">    -19.63500904 </i>
    <i name="pawpsdc">    523.34509410 </i>
    <i name="pawaedc">   -486.79315781 </i>
    <i name="eentropy">     -0.00006323 </i>
    <i name="bandstr">      4.36470441 </i>
    <i name="atom">    208.59373829 </i>
    <i name="e_fr_energy">     -8.33492058 </i>
    <i name="e_wo_entrp">     -8.33485735 </i>
    <i name="e_0_energy">     -8.33488897 </i>
   </energy>
  </scstep>
  <structure>
   <crystal>
    <varray name="basis" >
     <v>       0.00000000       2.74682114       2.74682114 </v>
     <v>       2.74682114       0.00000000       2.74682114 </v>
     <v>       2.74682114       2.74682114       0.00000000 </v>
    </varray>
    <i name="volume">     41.44967579 </i>
    <varray name="rec_basis" >
     <v>      -0.18202860       0.18202860       0.18202860 </v>
     <v>       0.18202860      -0.18202860       0.18202860 </v>
     <v>       0.18202860       0.18202860      -0.18202860 </v>
    </varray>
   </crystal>
   <varray name="positions" >
    <v>       0.75000000       0.75000000       0.75000000 </v>
    <v>       0.50000000       0.50000000       0.50000000 </v>
   </varray>
  </structure>
  <varray name="forces" >
   <v>      -0.00000000       0.00000000      -0.00000000 </v>
   <v>       0.00000000      -0.00000000       0.00000000 </v>
  </varray>
  <varray name="stress" >
   <v>       0.01303983      -0.00000000      -0.00000000 </v>
   <v>       0.00000000       0.01303983       0.00000000 </v>
   <v>      -0.00000000       0.00000000       0.01303983 </v>
  </varray>
  <energy>
   <i name="e_fr_energy">     -8.33492058 </i>
   <i name="e_wo_entrp">     -8.33488897 </i>
   <i name="e_0_energy">     -0.00006323 </i>
  </energy>
  <time name="totalsc">   32.06   33.62</time>
  <eigenvalues>
   <array>
    <dimension dim="1">band</dimension>
    <dimension dim="2">kpoint</dimension>
    <dimension dim="3">spin</dimension>
    <field>eigene</field>
    <field>occ</field>
    <set>
     <set comment="spin 1">
      <set comment="kpoint 1">
       <r>   -6.1906    1.0000 </r>
       <r>    5.4604    0.9936 </r>
       <r>    5.4604    0.9936 </r>
       <r>    5.4604    0.9936 </r>
       <r>    8.0752    0.0000 </r>
       <r>    8.0752    0.0000 </r>
       <r>    8.0752    0.0000 </r>
       <r>    8.5315    0.0000 </r>
       <r>   13.2148    0.0000 </r>
       <r>   13.2148    0.0000 </r>
       <r>   13.3491    0.0000 </r>
       <r>   16.6559    0.0000 </r>
       <r>   16.6559    0.0000 </r>
       <r>   16.6559    0.0000 </r>
       <r>   20.7510    0.0000 </r>
       <r>   28.1675    0.0000 </r>
      </set>
      <set comment="kpoint 2">
       <r>   -5.9930    1.0000 </r>
       <r>    3.9027    1.0000 </r>
       <r>    5.1891    1.0000 </r>
       <r>    5.1891    1.0000 </r>
       <r>    7.9303    0.0000 </r>
       <r>    8.4788    0.0000 </r>
       <r>    8.4788    0.0000 </r>
       <r>    9.9341    0.0000 </r>
       <r>   12.7481    0.0000 </r>
       <r>   12.7481    0.0000 </r>
       <r>   14.1154    0.0000 </r>
       <r>   16.1135    0.0000 </r>
       <r>   17.7864    0.0000 </r>
       <r>   17.7864    0.0000 </r>
       <r>   21.9441    0.0000 </r>
       <r>   26.1725    0.0000 </r>
      </set>
      <set comment="kpoint 3">
       <r>   -5.4170    1.0000 </r>
       <r>    1.6446    1.0000 </r>
       <r>    4.7386    1.0000 </r>
       <r>    4.7386    1.0000 </r>
       <r>    7.4439    0.0000 </r>
       <r>    8.9948    0.0000 </r>
       <r>    8.9948    0.0000 </r>
       <r>   12.1395    0.0000 </r>
       <r>   12.6900    0.0000 </r>
       <r>   12.6900    0.0000 </r>
       <r>   14.4159    0.0000 </r>
       <r>   17.1464    0.0000 </r>
       <r>   19.9397    0.0000 </r>
       <r>   19.9397    0.0000 </r>
       <r>   23.0525    0.0000 </r>
       <r>   23.0667    0.0000 </r>
      </set>
      <set comment="kpoint 4">
       <r>   -4.5568    1.0000 </r>
       <r>   -0.3081    1.0000 </r>
       <r>    4.4215    1.0000 </r>
       <r>    4.4215    1.0000 </r>
       <r>    7.0799    0.0000 </r>
       <r>    8.9732    0.0000 </r>
       <r>    8.9732    0.0000 </r>
       <r>   13.3281    0.0000 </r>
       <r>   14.0095    0.0000 </r>
       <r>   14.0095    0.0000 </r>
       <r>   14.8958    0.0000 </r>
       <r>   19.0256    0.0000 </r>
       <r>   19.0256    0.0000 </r>
       <r>   19.2184    0.0000 </r>
       <r>   21.7822    0.0000 </r>
       <r>   23.7718    0.0000 </r>
      </set>
      <set comment="kpoint 5">
       <r>   -3.9509    1.0000 </r>
       <r>   -1.2871    1.0000 </r>
       <r>    4.3125    1.0000 </r>
       <r>    4.3125    1.0000 </r>
       <r>    6.9520    0.0000 </r>
       <r>    8.8760    0.0000 </r>
       <r>    8.8760    0.0000 </r>
       <r>   13.2144    0.0000 </r>
       <r>   15.9320    0.0000 </r>
       <r>   15.9320    0.0000 </r>
       <r>   16.5438    0.0000 </r>
       <r>   16.6571    0.0000 </r>
       <r>   16.6571    0.0000 </r>
       <r>   18.0557    0.0000 </r>
       <r>   24.5017    0.0000 </r>
       <r>   25.0189    0.0000 </r>
      </set>
      <set comment="kpoint 6">
       <r>   -5.9263    1.0000 </r>
       <r>    4.1214    1.0000 </r>
       <r>    4.7036    1.0000 </r>
       <r>    4.7036    1.0000 </r>
       <r>    7.5425    0.0000 </r>
       <r>    9.1557    0.0000 </r>
       <r>    9.1557    0.0000 </r>
       <r>    9.6285    0.0000 </r>
       <r>   11.9858    0.0000 </r>
       <r>   13.5102    0.0000 </r>
       <r>   14.4055    0.0000 </r>
       <r>   17.1177    0.0000 </r>
       <r>   17.1177    0.0000 </r>
       <r>   17.5991    0.0000 </r>
       <r>   22.5095    0.0000 </r>
       <r>   25.6674    0.0000 </r>
      </set>
      <set comment="kpoint 7">
       <r>   -5.4727    1.0000 </r>
       <r>    2.3063    1.0000 </r>
       <r>    4.2128    1.0000 </r>
       <r>    4.2712    1.0000 </r>
       <r>    7.6601    0.0000 </r>
       <r>    9.0905    0.0000 </r>
       <r>    9.9021    0.0000 </r>
       <r>   10.2395    0.0000 </r>
       <r>   12.7693    0.0000 </r>
       <r>   13.6656    0.0000 </r>
       <r>   15.3950    0.0000 </r>
       <r>   16.9601    0.0000 </r>
       <r>   18.4896    0.0000 </r>
       <r>   19.7291    0.0000 </r>
       <r>   22.7784    0.0000 </r>
       <r>   23.1977    0.0000 </r>
      </set>
      <set comment="kpoint 8">
       <r>   -4.6866    1.0000 </r>
       <r>    0.3195    1.0000 </r>
       <r>    3.6997    1.0000 </r>
       <r>    3.9515    1.0000 </r>
       <r>    7.7327    0.0000 </r>
       <r>    9.0789    0.0000 </r>
       <r>    9.9348    0.0000 </r>
       <r>   10.9287    0.0000 </r>
       <r>   14.7348    0.0000 </r>
       <r>   14.7360    0.0000 </r>
       <r>   15.1940    0.0000 </r>
       <r>   18.6775    0.0000 </r>
       <r>   18.6818    0.0000 </r>
       <r>   20.4157    0.0000 </r>
       <r>   21.9593    0.0000 </r>
       <r>   22.7886    0.0000 </r>
      </set>
      <set comment="kpoint 9">
       <r>   -3.8640    1.0000 </r>
       <r>   -1.0843    1.0000 </r>
       <r>    3.2716    1.0000 </r>
       <r>    3.9707    1.0000 </r>
       <r>    7.6634    0.0000 </r>
       <r>    8.9863    0.0000 </r>
       <r>    9.6033    0.0000 </r>
       <r>   12.7680    0.0000 </r>
       <r>   14.4184    0.0000 </r>
       <r>   15.8539    0.0000 </r>
       <r>   16.8086    0.0000 </r>
       <r>   16.9717    0.0000 </r>
       <r>   17.6754    0.0000 </r>
       <r>   20.1790    0.0000 </r>
       <r>   23.4453    0.0000 </r>
       <r>   24.8546    0.0000 </r>
      </set>
      <set comment="kpoint 10">
       <r>   -4.0960    1.0000 </r>
       <r>   -0.7304    1.0000 </r>
       <r>    3.1021    1.0000 </r>
       <r>    4.2516    1.0000 </r>
       <r>    7.8035    0.0000 </r>
       <r>    9.1077    0.0000 </r>
       <r>    9.3796    0.0000 </r>
       <r>   13.2756    0.0000 </r>
       <r>   13.5307    0.0000 </r>
       <r>   14.5874    0.0000 </r>
       <r>   16.5193    0.0000 </r>
       <r>   17.6547    0.0000 </r>
       <r>   19.5272    0.0000 </r>
       <r>   19.8242    0.0000 </r>
       <r>   22.0514    0.0000 </r>
       <r>   23.8444    0.0000 </r>
      </set>
      <set comment="kpoint 11">
       <r>   -4.9818    1.0000 </r>
       <r>    0.9546    1.0000 </r>
       <r>    3.2580    1.0000 </r>
       <r>    4.7199    1.0000 </r>
       <r>    8.1376    0.0000 </r>
       <r>    9.1720    0.0000 </r>
       <r>    9.3227    0.0000 </r>
       <r>   11.6632    0.0000 </r>
       <r>   11.9822    0.0000 </r>
       <r>   15.1878    0.0000 </r>
       <r>   15.3886    0.0000 </r>
       <r>   17.7381    0.0000 </r>
       <r>   19.2550    0.0000 </r>
       <r>   20.7145    0.0000 </r>
       <r>   21.6192    0.0000 </r>
       <r>   23.1081    0.0000 </r>
      </set>
      <set comment="kpoint 12">
       <r>   -5.6675    1.0000 </r>
       <r>    2.8282    1.0000 </r>
       <r>    3.9265    1.0000 </r>
       <r>    5.1778    1.0000 </r>
       <r>    8.4483    0.0000 </r>
       <r>    8.6213    0.0000 </r>
       <r>    8.8072    0.0000 </r>
       <r>   10.8628    0.0000 </r>
       <r>   11.8762    0.0000 </r>
       <r>   13.4323    0.0000 </r>
       <r>   15.1054    0.0000 </r>
       <r>   16.5975    0.0000 </r>
       <r>   17.7372    0.0000 </r>
       <r>   19.7921    0.0000 </r>
       <r>   22.8681    0.0000 </r>
       <r>   23.3833    0.0000 </r>
      </set>
      <set comment="kpoint 13">
       <r>   -5.1429    1.0000 </r>
       <r>    1.9829    1.0000 </r>
       <r>    3.6659    1.0000 </r>
       <r>    3.6659    1.0000 </r>
       <r>    6.6922    0.0000 </r>
       <r>    8.6628    0.0000 </r>
       <r>   11.1369    0.0000 </r>
       <r>   11.1369    0.0000 </r>
       <r>   13.2427    0.0000 </r>
       <r>   14.3948    0.0000 </r>
       <r>   16.7288    0.0000 </r>
       <r>   18.3652    0.0000 </r>
       <r>   18.3652    0.0000 </r>
       <r>   19.0988    0.0000 </r>
       <r>   22.5597    0.0000 </r>
       <r>   22.5597    0.0000 </r>
      </set>
      <set comment="kpoint 14">
       <r>   -4.4568    1.0000 </r>
       <r>    0.6100    1.0000 </r>
       <r>    2.9190    1.0000 </r>
       <r>    3.3581    1.0000 </r>
       <r>    6.9073    0.0000 </r>
       <r>    8.4303    0.0000 </r>
       <r>   11.3460    0.0000 </r>
       <r>   11.6624    0.0000 </r>
       <r>   15.3189    0.0000 </r>
       <r>   15.3920    0.0000 </r>
       <r>   16.9797    0.0000 </r>
       <r>   18.4905    0.0000 </r>
       <r>   19.0703    0.0000 </r>
       <r>   20.0513    0.0000 </r>
       <r>   21.1891    0.0000 </r>
       <r>   22.3590    0.0000 </r>
      </set>
      <set comment="kpoint 15">
       <r>   -3.5677    1.0000 </r>
       <r>   -0.7711    1.0000 </r>
       <r>    2.0880    1.0000 </r>
       <r>    3.3587    1.0000 </r>
       <r>    7.0820    0.0000 </r>
       <r>    9.9261    0.0000 </r>
       <r>   11.0850    0.0000 </r>
       <r>   11.3549    0.0000 </r>
       <r>   15.5006    0.0000 </r>
       <r>   15.8935    0.0000 </r>
       <r>   17.4782    0.0000 </r>
       <r>   17.8640    0.0000 </r>
       <r>   18.3038    0.0000 </r>
       <r>   22.0218    0.0000 </r>
       <r>   22.9537    0.0000 </r>
       <r>   23.6614    0.0000 </r>
      </set>
      <set comment="kpoint 16">
       <r>   -3.3755    1.0000 </r>
       <r>   -1.0148    1.0000 </r>
       <r>    1.6505    1.0000 </r>
       <r>    3.6623    1.0000 </r>
       <r>    7.3899    0.0000 </r>
       <r>   10.8476    0.0000 </r>
       <r>   10.9314    0.0000 </r>
       <r>   12.3408    0.0000 </r>
       <r>   13.3167    0.0000 </r>
       <r>   13.4172    0.0000 </r>
       <r>   17.9378    0.0000 </r>
       <r>   20.0774    0.0000 </r>
       <r>   20.2152    0.0000 </r>
       <r>   21.1822    0.0000 </r>
       <r>   21.6407    0.0000 </r>
       <r>   23.5347    0.0000 </r>
      </set>
      <set comment="kpoint 17">
       <r>   -4.2166    1.0000 </r>
       <r>    0.0979    1.0000 </r>
       <r>    1.8905    1.0000 </r>
       <r>    4.1947    1.0000 </r>
       <r>    7.9557    0.0000 </r>
       <r>   10.2418    0.0000 </r>
       <r>   10.5277    0.0000 </r>
       <r>   11.4949    0.0000 </r>
       <r>   11.9547    0.0000 </r>
       <r>   14.9518    0.0000 </r>
       <r>   17.9230    0.0000 </r>
       <r>   18.4196    0.0000 </r>
       <r>   18.7718    0.0000 </r>
       <r>   21.9078    0.0000 </r>
       <r>   22.2648    0.0000 </r>
       <r>   22.4891    0.0000 </r>
      </set>
      <set comment="kpoint 18">
       <r>   -3.8730    1.0000 </r>
       <r>   -0.1785    1.0000 </r>
       <r>    2.9745    1.0000 </r>
       <r>    2.9745    1.0000 </r>
       <r>    6.2015    0.0030 </r>
       <r>    7.1274    0.0000 </r>
       <r>   13.3553    0.0000 </r>
       <r>   13.3553    0.0000 </r>
       <r>   15.8136    0.0000 </r>
       <r>   15.8631    0.0000 </r>
       <r>   18.2660    0.0000 </r>
       <r>   18.2660    0.0000 </r>
       <r>   18.8370    0.0000 </r>
       <r>   20.4922    0.0000 </r>
       <r>   21.2997    0.0000 </r>
       <r>   22.0983    0.0000 </r>
      </set>
      <set comment="kpoint 19">
       <r>   -3.0077    1.0000 </r>
       <r>   -1.2292    1.0000 </r>
       <r>    2.1932    1.0000 </r>
       <r>    2.9002    1.0000 </r>
       <r>    6.4822    0.0000 </r>
       <r>    7.5158    0.0000 </r>
       <r>   13.6129    0.0000 </r>
       <r>   13.6395    0.0000 </r>
       <r>   16.0058    0.0000 </r>
       <r>   16.1389    0.0000 </r>
       <r>   17.6537    0.0000 </r>
       <r>   17.9575    0.0000 </r>
       <r>   20.0768    0.0000 </r>
       <r>   20.2183    0.0000 </r>
       <r>   21.2318    0.0000 </r>
       <r>   23.9448    0.0000 </r>
      </set>
      <set comment="kpoint 20">
       <r>   -2.5955    1.0000 </r>
       <r>   -1.6060    1.0000 </r>
       <r>    1.3726    1.0000 </r>
       <r>    3.1470    1.0000 </r>
       <r>    6.7817    0.0000 </r>
       <r>    9.6071    0.0000 </r>
       <r>   12.8388    0.0000 </r>
       <r>   13.3258    0.0000 </r>
       <r>   13.4996    0.0000 </r>
       <r>   13.9391    0.0000 </r>
       <r>   19.8307    0.0000 </r>
       <r>   20.1681    0.0000 </r>
       <r>   20.6800    0.0000 </r>
       <r>   20.9398    0.0000 </r>
       <r>   21.1211    0.0000 </r>
       <r>   22.1700    0.0000 </r>
      </set>
      <set comment="kpoint 21">
       <r>   -2.1814    1.0000 </r>
       <r>   -2.1814    1.0000 </r>
       <r>    2.7371    1.0000 </r>
       <r>    2.7371    1.0000 </r>
       <r>    6.3073    0.0002 </r>
       <r>    6.3073    0.0002 </r>
       <r>   15.3322    0.0000 </r>
       <r>   15.3322    0.0000 </r>
       <r>   16.2978    0.0000 </r>
       <r>   16.2978    0.0000 </r>
       <r>   17.9034    0.0000 </r>
       <r>   17.9034    0.0000 </r>
       <r>   18.1237    0.0000 </r>
       <r>   18.1237    0.0000 </r>
       <r>   24.1019    0.0000 </r>
       <r>   24.1019    0.0000 </r>
      </set>
      <set comment="kpoint 22">
       <r>   -4.9045    1.0000 </r>
       <r>    1.2512    1.0000 </r>
       <r>    2.8859    1.0000 </r>
       <r>    4.1016    1.0000 </r>
       <r>    7.9547    0.0000 </r>
       <r>    9.3020    0.0000 </r>
       <r>    9.7165    0.0000 </r>
       <r>   10.8943    0.0000 </r>
       <r>   13.1682    0.0000 </r>
       <r>   15.5041    0.0000 </r>
       <r>   16.3976    0.0000 </r>
       <r>   17.5093    0.0000 </r>
       <r>   19.1500    0.0000 </r>
       <r>   20.3580    0.0000 </r>
       <r>   21.0973    0.0000 </r>
       <r>   23.3618    0.0000 </r>
      </set>
      <set comment="kpoint 23">
       <r>   -4.0492    1.0000 </r>
       <r>   -0.2409    1.0000 </r>
       <r>    2.2888    1.0000 </r>
       <r>    3.6284    1.0000 </r>
       <r>    8.3702    0.0000 </r>
       <r>    9.0271    0.0000 </r>
       <r>   10.4649    0.0000 </r>
       <r>   11.3358    0.0000 </r>
       <r>   14.3683    0.0000 </r>
       <r>   15.0603    0.0000 </r>
       <r>   17.3565    0.0000 </r>
       <r>   18.1111    0.0000 </r>
       <r>   19.4612    0.0000 </r>
       <r>   20.3909    0.0000 </r>
       <r>   22.4960    0.0000 </r>
       <r>   23.3091    0.0000 </r>
      </set>
      <set comment="kpoint 24">
       <r>   -3.4282    1.0000 </r>
       <r>   -1.1407    1.0000 </r>
       <r>    2.1567    1.0000 </r>
       <r>    3.4115    1.0000 </r>
       <r>    8.5132    0.0000 </r>
       <r>    8.6676    0.0000 </r>
       <r>   11.3071    0.0000 </r>
       <r>   12.5233    0.0000 </r>
       <r>   12.7640    0.0000 </r>
       <r>   15.9472    0.0000 </r>
       <r>   16.9605    0.0000 </r>
       <r>   17.7060    0.0000 </r>
       <r>   20.6095    0.0000 </r>
       <r>   20.7552    0.0000 </r>
       <r>   23.2583    0.0000 </r>
       <r>   23.6420    0.0000 </r>
      </set>
      <set comment="kpoint 25">
       <r>   -3.6836    1.0000 </r>
       <r>   -0.3907    1.0000 </r>
       <r>    2.2619    1.0000 </r>
       <r>    2.8411    1.0000 </r>
       <r>    7.4782    0.0000 </r>
       <r>    8.1866    0.0000 </r>
       <r>   11.1440    0.0000 </r>
       <r>   13.3083    0.0000 </r>
       <r>   15.4739    0.0000 </r>
       <r>   15.5283    0.0000 </r>
       <r>   18.0505    0.0000 </r>
       <r>   18.5735    0.0000 </r>
       <r>   19.4725    0.0000 </r>
       <r>   19.9585    0.0000 </r>
       <r>   21.8787    0.0000 </r>
       <r>   22.2883    0.0000 </r>
      </set>
      <set comment="kpoint 26">
       <r>   -2.8459    1.0000 </r>
       <r>   -1.3233    1.0000 </r>
       <r>    1.5982    1.0000 </r>
       <r>    2.6501    1.0000 </r>
       <r>    7.9165    0.0000 </r>
       <r>    9.7633    0.0000 </r>
       <r>   10.6840    0.0000 </r>
       <r>   12.8018    0.0000 </r>
       <r>   13.7291    0.0000 </r>
       <r>   16.3565    0.0000 </r>
       <r>   17.4671    0.0000 </r>
       <r>   19.6155    0.0000 </r>
       <r>   20.5653    0.0000 </r>
       <r>   21.1154    0.0000 </r>
       <r>   22.7770    0.0000 </r>
       <r>   23.5732    0.0000 </r>
      </set>
      <set comment="kpoint 27">
       <r>   -3.1841    1.0000 </r>
       <r>   -0.9702    1.0000 </r>
       <r>    1.4398    1.0000 </r>
       <r>    3.0080    1.0000 </r>
       <r>    8.3773    0.0000 </r>
       <r>    9.9975    0.0000 </r>
       <r>   10.6475    0.0000 </r>
       <r>   12.4209    0.0000 </r>
       <r>   13.1902    0.0000 </r>
       <r>   14.5771    0.0000 </r>
       <r>   19.3163    0.0000 </r>
       <r>   19.5696    0.0000 </r>
       <r>   19.8866    0.0000 </r>
       <r>   21.4082    0.0000 </r>
       <r>   21.7084    0.0000 </r>
       <r>   23.4538    0.0000 </r>
      </set>
      <set comment="kpoint 28">
       <r>   -2.1106    1.0000 </r>
       <r>   -2.1106    1.0000 </r>
       <r>    2.2119    1.0000 </r>
       <r>    2.2119    1.0000 </r>
       <r>    7.5144    0.0000 </r>
       <r>    7.5144    0.0000 </r>
       <r>   13.1915    0.0000 </r>
       <r>   13.1915    0.0000 </r>
       <r>   15.8439    0.0000 </r>
       <r>   15.8439    0.0000 </r>
       <r>   18.1172    0.0000 </r>
       <r>   18.1172    0.0000 </r>
       <r>   20.7194    0.0000 </r>
       <r>   20.7194    0.0000 </r>
       <r>   22.6536    0.0000 </r>
       <r>   22.6536    0.0000 </r>
      </set>
      <set comment="kpoint 29">
       <r>   -2.0332    1.0000 </r>
       <r>   -2.0332    1.0000 </r>
       <r>    1.8031    1.0000 </r>
       <r>    1.8031    1.0000 </r>
       <r>    9.7651    0.0000 </r>
       <r>    9.7651    0.0000 </r>
       <r>   10.4083    0.0000 </r>
       <r>   10.4083    0.0000 </r>
       <r>   15.8410    0.0000 </r>
       <r>   15.8410    0.0000 </r>
       <r>   18.2569    0.0000 </r>
       <r>   18.2569    0.0000 </r>
       <r>   21.7412    0.0000 </r>
       <r>   21.7412    0.0000 </r>
       <r>   23.7816    0.0000 </r>
       <r>   23.7833    0.0000 </r>
      </set>
     </set>
    </set>
   </array>
  </eigenvalues>
  <separator name="orbital magnetization" >
   <v name="MAGDIPOLOUT">      0.00000000      0.00000000      0.00000000</v>
  </separator>
  <dos>
   <i name="efermi">      5.81251968 </i>
   <total>
    <array>
     <dimension dim="1">gridpoints</dimension>
     <dimension dim="2">spin</dimension>
     <field>energy</field>
     <field>total</field>
     <field>integrated</field>
     <set>
      <set comment="spin 1">
       <r>    -8.1906     0.0000     0.0000 </r>
       <r>    -8.0628     0.0000     0.0000 </r>
       <r>    -7.9349     0.0000     0.0000 </r>
       <r>    -7.8071     0.0000     0.0000 </r>
       <r>    -7.6792     0.0000     0.0000 </r>
       <r>    -7.5513     0.0000     0.0000 </r>
       <r>    -7.4235     0.0000     0.0000 </r>
       <r>    -7.2956     0.0000     0.0000 </r>
       <r>    -7.1678     0.0000     0.0000 </r>
       <r>    -7.0399     0.0000     0.0000 </r>
       <r>    -6.9120     0.0000     0.0000 </r>
       <r>    -6.7842     0.0000     0.0000 </r>
       <r>    -6.6563     0.0000     0.0000 </r>
       <r>    -6.5285     0.0003     0.0000 </r>
       <r>    -6.4006     0.0024     0.0003 </r>
       <r>    -6.2727     0.0131     0.0020 </r>
       <r>    -6.1449     0.0493     0.0083 </r>
       <r>    -6.0170     0.1181     0.0234 </r>
       <r>    -5.8892     0.1681     0.0449 </r>
       <r>    -5.7613     0.1822     0.0682 </r>
       <r>    -5.6334     0.2474     0.0998 </r>
       <r>    -5.5056     0.3627     0.1462 </r>
       <r>    -5.3777     0.3832     0.1952 </r>
       <r>    -5.2499     0.2719     0.2300 </r>
       <r>    -5.1220     0.2611     0.2634 </r>
       <r>    -4.9941     0.4438     0.3201 </r>
       <r>    -4.8663     0.5834     0.3947 </r>
       <r>    -4.7384     0.5487     0.4648 </r>
       <r>    -4.6106     0.5049     0.5294 </r>
       <r>    -4.4827     0.4883     0.5918 </r>
       <r>    -4.3548     0.4438     0.6486 </r>
       <r>    -4.2270     0.5132     0.7142 </r>
       <r>    -4.0991     0.8210     0.8192 </r>
       <r>    -3.9712     1.0224     0.9499 </r>
       <r>    -3.8434     0.8907     1.0638 </r>
       <r>    -3.7155     0.7253     1.1565 </r>
       <r>    -3.5877     0.7207     1.2487 </r>
       <r>    -3.4598     0.7849     1.3490 </r>
       <r>    -3.3319     0.7676     1.4472 </r>
       <r>    -3.2041     0.6489     1.5301 </r>
       <r>    -3.0762     0.5924     1.6059 </r>
       <r>    -2.9484     0.6703     1.6916 </r>
       <r>    -2.8205     0.7240     1.7842 </r>
       <r>    -2.6926     0.5564     1.8553 </r>
       <r>    -2.5648     0.3046     1.8942 </r>
       <r>    -2.4369     0.1497     1.9134 </r>
       <r>    -2.3091     0.1297     1.9300 </r>
       <r>    -2.1812     0.2778     1.9655 </r>
       <r>    -2.0533     0.4228     2.0195 </r>
       <r>    -1.9255     0.3349     2.0624 </r>
       <r>    -1.7976     0.1585     2.0826 </r>
       <r>    -1.6698     0.1238     2.0985 </r>
       <r>    -1.5419     0.2247     2.1272 </r>
       <r>    -1.4140     0.4852     2.1892 </r>
       <r>    -1.2862     0.9194     2.3068 </r>
       <r>    -1.1583     1.2386     2.4651 </r>
       <r>    -1.0305     1.2667     2.6271 </r>
       <r>    -0.9026     1.0638     2.7631 </r>
       <r>    -0.7747     0.8238     2.8685 </r>
       <r>    -0.6469     0.6127     2.9468 </r>
       <r>    -0.5190     0.4345     3.0024 </r>
       <r>    -0.3912     0.5385     3.0712 </r>
       <r>    -0.2633     0.7954     3.1729 </r>
       <r>    -0.1354     0.7450     3.2682 </r>
       <r>    -0.0076     0.4296     3.3231 </r>
       <r>     0.1203     0.2621     3.3566 </r>
       <r>     0.2481     0.2886     3.3935 </r>
       <r>     0.3760     0.3319     3.4360 </r>
       <r>     0.5039     0.3212     3.4770 </r>
       <r>     0.6317     0.3143     3.5172 </r>
       <r>     0.7596     0.2784     3.5528 </r>
       <r>     0.8875     0.2637     3.5865 </r>
       <r>     1.0153     0.3067     3.6257 </r>
       <r>     1.1432     0.3379     3.6689 </r>
       <r>     1.2710     0.4594     3.7277 </r>
       <r>     1.3989     0.6833     3.8151 </r>
       <r>     1.5268     0.9443     3.9358 </r>
       <r>     1.6546     1.0982     4.0762 </r>
       <r>     1.7825     0.9208     4.1939 </r>
       <r>     1.9103     0.6806     4.2810 </r>
       <r>     2.0382     0.8498     4.3896 </r>
       <r>     2.1661     1.4720     4.5778 </r>
       <r>     2.2939     1.8659     4.8164 </r>
       <r>     2.4218     1.4188     4.9978 </r>
       <r>     2.5496     0.8350     5.1046 </r>
       <r>     2.6775     0.8835     5.2175 </r>
       <r>     2.8054     1.3257     5.3870 </r>
       <r>     2.9332     1.6993     5.6043 </r>
       <r>     3.0611     1.6524     5.8156 </r>
       <r>     3.1889     1.4469     6.0006 </r>
       <r>     3.3168     1.4574     6.1869 </r>
       <r>     3.4447     1.4284     6.3696 </r>
       <r>     3.5725     1.3499     6.5422 </r>
       <r>     3.7004     1.3841     6.7191 </r>
       <r>     3.8282     1.2505     6.8790 </r>
       <r>     3.9561     1.1609     7.0275 </r>
       <r>     4.0840     1.2800     7.1911 </r>
       <r>     4.2118     1.4058     7.3709 </r>
       <r>     4.3397     1.2667     7.5328 </r>
       <r>     4.4675     0.8126     7.6367 </r>
       <r>     4.5954     0.5256     7.7039 </r>
       <r>     4.7233     0.5713     7.7770 </r>
       <r>     4.8511     0.5163     7.8430 </r>
       <r>     4.9790     0.2879     7.8798 </r>
       <r>     5.1068     0.2381     7.9103 </r>
       <r>     5.2347     0.3064     7.9494 </r>
       <r>     5.3626     0.2374     7.9798 </r>
       <r>     5.4904     0.1069     7.9935 </r>
       <r>     5.6183     0.0381     7.9983 </r>
       <r>     5.7462     0.0111     7.9998 </r>
       <r>     5.8740     0.0038     8.0002 </r>
       <r>     6.0019     0.0156     8.0022 </r>
       <r>     6.1297     0.0624     8.0102 </r>
       <r>     6.2576     0.1479     8.0291 </r>
       <r>     6.3855     0.2528     8.0615 </r>
       <r>     6.5133     0.3323     8.1039 </r>
       <r>     6.6412     0.3387     8.1472 </r>
       <r>     6.7690     0.3790     8.1957 </r>
       <r>     6.8969     0.5195     8.2621 </r>
       <r>     7.0248     0.6360     8.3434 </r>
       <r>     7.1526     0.6146     8.4220 </r>
       <r>     7.2805     0.5913     8.4976 </r>
       <r>     7.4083     0.9156     8.6147 </r>
       <r>     7.5362     1.4185     8.7960 </r>
       <r>     7.6641     1.6235     9.0036 </r>
       <r>     7.7919     1.6165     9.2103 </r>
       <r>     7.9198     1.6047     9.4155 </r>
       <r>     8.0476     1.4419     9.5999 </r>
       <r>     8.1755     1.2172     9.7555 </r>
       <r>     8.3034     1.3344     9.9261 </r>
       <r>     8.4312     1.6782    10.1407 </r>
       <r>     8.5591     1.6366    10.3499 </r>
       <r>     8.6869     1.2125    10.5050 </r>
       <r>     8.8148     1.0122    10.6344 </r>
       <r>     8.9427     1.4509    10.8199 </r>
       <r>     9.0705     2.1540    11.0953 </r>
       <r>     9.1984     2.1932    11.3757 </r>
       <r>     9.3262     1.6420    11.5857 </r>
       <r>     9.4541     1.1463    11.7322 </r>
       <r>     9.5820     1.0378    11.8649 </r>
       <r>     9.7098     1.3703    12.0401 </r>
       <r>     9.8377     1.7115    12.2590 </r>
       <r>     9.9655     1.6587    12.4710 </r>
       <r>    10.0934     1.2026    12.6248 </r>
       <r>    10.2213     0.8157    12.7291 </r>
       <r>    10.3491     0.8310    12.8354 </r>
       <r>    10.4770     1.0697    12.9721 </r>
       <r>    10.6049     1.2874    13.1367 </r>
       <r>    10.7327     1.4295    13.3195 </r>
       <r>    10.8606     1.5592    13.5189 </r>
       <r>    10.9884     1.5762    13.7204 </r>
       <r>    11.1163     1.4494    13.9057 </r>
       <r>    11.2442     1.5077    14.0985 </r>
       <r>    11.3720     1.6383    14.3080 </r>
       <r>    11.4999     1.3493    14.4805 </r>
       <r>    11.6277     0.9335    14.5999 </r>
       <r>    11.7556     0.7495    14.6957 </r>
       <r>    11.8835     0.6863    14.7835 </r>
       <r>    12.0113     0.6741    14.8696 </r>
       <r>    12.1392     0.5579    14.9410 </r>
       <r>    12.2670     0.4951    15.0043 </r>
       <r>    12.3949     0.6585    15.0885 </r>
       <r>    12.5228     0.8669    15.1993 </r>
       <r>    12.6506     1.2175    15.3550 </r>
       <r>    12.7785     1.7285    15.5760 </r>
       <r>    12.9063     1.6204    15.7832 </r>
       <r>    13.0342     1.0993    15.9237 </r>
       <r>    13.1621     1.3280    16.0935 </r>
       <r>    13.2899     2.0453    16.3550 </r>
       <r>    13.4178     2.2570    16.6436 </r>
       <r>    13.5456     2.0368    16.9041 </r>
       <r>    13.6735     1.8244    17.1373 </r>
       <r>    13.8014     1.4062    17.3171 </r>
       <r>    13.9292     0.8391    17.4244 </r>
       <r>    14.0571     0.5216    17.4911 </r>
       <r>    14.1849     0.4797    17.5524 </r>
       <r>    14.3128     0.7721    17.6512 </r>
       <r>    14.4407     1.2067    17.8054 </r>
       <r>    14.5685     1.3148    17.9736 </r>
       <r>    14.6964     1.1707    18.1232 </r>
       <r>    14.8242     0.9771    18.2482 </r>
       <r>    14.9521     0.9232    18.3662 </r>
       <r>    15.0800     1.1781    18.5168 </r>
       <r>    15.2078     1.5171    18.7108 </r>
       <r>    15.3357     1.8519    18.9476 </r>
       <r>    15.4636     2.0877    19.2145 </r>
       <r>    15.5914     1.7490    19.4382 </r>
       <r>    15.7193     1.2310    19.5956 </r>
       <r>    15.8471     1.3661    19.7702 </r>
       <r>    15.9750     1.6261    19.9782 </r>
       <r>    16.1029     1.3570    20.1517 </r>
       <r>    16.2307     1.0460    20.2854 </r>
       <r>    16.3586     1.0947    20.4254 </r>
       <r>    16.4864     1.1599    20.5737 </r>
       <r>    16.6143     0.9870    20.6999 </r>
       <r>    16.7422     0.8622    20.8101 </r>
       <r>    16.8700     1.0570    20.9453 </r>
       <r>    16.9979     1.3267    21.1149 </r>
       <r>    17.1257     1.1738    21.2650 </r>
       <r>    17.2536     0.9471    21.3861 </r>
       <r>    17.3815     1.2719    21.5487 </r>
       <r>    17.5093     1.8568    21.7861 </r>
       <r>    17.6372     2.2095    22.0686 </r>
       <r>    17.7650     2.2805    22.3602 </r>
       <r>    17.8929     2.1397    22.6338 </r>
       <r>    18.0208     2.0397    22.8946 </r>
       <r>    18.1486     1.9293    23.1412 </r>
       <r>    18.2765     1.6429    23.3513 </r>
       <r>    18.4043     1.4282    23.5339 </r>
       <r>    18.5322     1.4021    23.7132 </r>
       <r>    18.6601     1.3188    23.8818 </r>
       <r>    18.7879     1.0195    24.0122 </r>
       <r>    18.9158     0.7242    24.1048 </r>
       <r>    19.0436     0.7927    24.2061 </r>
       <r>    19.1715     1.0866    24.3451 </r>
       <r>    19.2994     1.3099    24.5125 </r>
       <r>    19.4272     1.6019    24.7174 </r>
       <r>    19.5551     1.9348    24.9647 </r>
       <r>    19.6829     1.9335    25.2120 </r>
       <r>    19.8108     1.7789    25.4394 </r>
       <r>    19.9387     1.8219    25.6724 </r>
       <r>    20.0665     1.9738    25.9247 </r>
       <r>    20.1944     2.0495    26.1868 </r>
       <r>    20.3223     1.9928    26.4416 </r>
       <r>    20.4501     1.9281    26.6881 </r>
       <r>    20.5780     1.8910    26.9299 </r>
       <r>    20.7058     1.7684    27.1560 </r>
       <r>    20.8337     1.3652    27.3305 </r>
       <r>    20.9616     1.0522    27.4651 </r>
       <r>    21.0894     1.3755    27.6410 </r>
       <r>    21.2173     1.7326    27.8625 </r>
       <r>    21.3451     1.3929    28.0406 </r>
       <r>    21.4730     0.9103    28.1570 </r>
       <r>    21.6009     0.9053    28.2727 </r>
       <r>    21.7287     1.1669    28.4219 </r>
       <r>    21.8566     1.3406    28.5933 </r>
       <r>    21.9844     1.4353    28.7769 </r>
       <r>    22.1123     1.3467    28.9491 </r>
       <r>    22.2402     1.1628    29.0977 </r>
       <r>    22.3680     1.1933    29.2503 </r>
       <r>    22.4959     1.3657    29.4249 </r>
       <r>    22.6237     1.4925    29.6158 </r>
       <r>    22.7516     1.6203    29.8229 </r>
       <r>    22.8795     1.6000    30.0275 </r>
       <r>    23.0073     1.3339    30.1981 </r>
       <r>    23.1352     1.2928    30.3634 </r>
       <r>    23.2630     1.6413    30.5732 </r>
       <r>    23.3909     2.0280    30.8325 </r>
       <r>    23.5188     2.1466    31.1070 </r>
       <r>    23.6466     1.9509    31.3564 </r>
       <r>    23.7745     1.5004    31.5483 </r>
       <r>    23.9023     1.0332    31.6804 </r>
       <r>    24.0302     0.6377    31.7619 </r>
       <r>    24.1581     0.3032    31.8007 </r>
       <r>    24.2859     0.1064    31.8143 </r>
       <r>    24.4138     0.0469    31.8203 </r>
       <r>    24.5416     0.0540    31.8272 </r>
       <r>    24.6695     0.0941    31.8392 </r>
       <r>    24.7974     0.2000    31.8648 </r>
       <r>    24.9252     0.2814    31.9008 </r>
       <r>    25.0531     0.2095    31.9276 </r>
       <r>    25.1810     0.0852    31.9385 </r>
       <r>    25.3088     0.0211    31.9412 </r>
       <r>    25.4367     0.0111    31.9426 </r>
       <r>    25.5645     0.0336    31.9469 </r>
       <r>    25.6924     0.0618    31.9548 </r>
       <r>    25.8203     0.0546    31.9618 </r>
       <r>    25.9481     0.0335    31.9660 </r>
       <r>    26.0760     0.0507    31.9725 </r>
       <r>    26.2038     0.0835    31.9832 </r>
       <r>    26.3317     0.0690    31.9920 </r>
       <r>    26.4596     0.0266    31.9954 </r>
       <r>    26.5874     0.0048    31.9960 </r>
       <r>    26.7153     0.0004    31.9961 </r>
       <r>    26.8431     0.0000    31.9961 </r>
       <r>    26.9710     0.0000    31.9961 </r>
       <r>    27.0989     0.0000    31.9961 </r>
       <r>    27.2267     0.0000    31.9961 </r>
       <r>    27.3546     0.0000    31.9961 </r>
       <r>    27.4824     0.0000    31.9961 </r>
       <r>    27.6103     0.0000    31.9961 </r>
       <r>    27.7382     0.0000    31.9961 </r>
       <r>    27.8660     0.0005    31.9962 </r>
       <r>    27.9939     0.0028    31.9965 </r>
       <r>    28.1217     0.0080    31.9976 </r>
       <r>    28.2496     0.0106    31.9989 </r>
       <r>    28.3775     0.0065    31.9997 </r>
       <r>    28.5053     0.0018    32.0000 </r>
       <r>    28.6332     0.0002    32.0000 </r>
       <r>    28.7610     0.0000    32.0000 </r>
       <r>    28.8889     0.0000    32.0000 </r>
       <r>    29.0168     0.0000    32.0000 </r>
       <r>    29.1446     0.0000    32.0000 </r>
       <r>    29.2725     0.0000    32.0000 </r>
       <r>    29.4003     0.0000    32.0000 </r>
       <r>    29.5282     0.0000    32.0000 </r>
       <r>    29.6561     0.0000    32.0000 </r>
       <r>    29.7839     0.0000    32.0000 </r>
       <r>    29.9118     0.0000    32.0000 </r>
       <r>    30.0397     0.0000    32.0000 </r>
       <r>    30.1675     0.0000    32.0000 </r>
      </set>
     </set>
    </array>
   </total>
  </dos>
 </calculation>
 <structure name="finalpos" >
  <crystal>
   <varray name="basis" >
    <v>       0.00000000       2.74682114       2.74682114 </v>
    <v>       2.74682114       0.00000000       2.74682114 </v>
    <v>       2.74682114       2.74682114       0.00000000 </v>
   </varray>
   <i name="volume">     41.44967579 </i>
   <varray name="rec_basis" >
    <v>      -0.18202860       0.18202860       0.18202860 </v>
    <v>       0.18202860      -0.18202860       0.18202860 </v>
    <v>       0.18202860       0.18202860      -0.18202860 </v>
   </varray>
  </crystal>
  <varray name="positions" >
   <v>       0.75000000       0.75000000       0.75000000 </v>
   <v>       0.50000000       0.50000000       0.50000000 </v>
  </varray>
 </structure>
</modeling>
