   2   2   0   0
  0.2072484E+02  0.3884592E-09  0.3884592E-09  0.3884592E-09  0.5000000E-15
   1.0000000000000000E-004
  CAR 
 unknown system                          
     30.16620249     -8.19187511  301      5.81218859      1.00000000
     -8.192  0.0000E+00  0.0000E+00
     -8.064  0.0000E+00  0.0000E+00
     -7.936  0.0000E+00  0.0000E+00
     -7.808  0.0000E+00  0.0000E+00
     -7.680  0.0000E+00  0.0000E+00
     -7.553  0.0000E+00  0.0000E+00
     -7.425  0.0000E+00  0.0000E+00
     -7.297  0.1661E-16  0.2124E-17
     -7.169  0.1688E-13  0.2160E-14
     -7.041  0.7945E-11  0.1018E-11
     -6.913  0.1733E-08  0.2227E-09
     -6.785  0.1769E-06  0.2284E-07
     -6.658  0.8564E-05  0.1118E-05
     -6.530  0.2007E-03  0.2678E-04
     -6.402  0.2352E-02  0.3275E-03
     -6.274  0.1443E-01  0.2173E-02
     -6.146  0.4980E-01  0.8541E-02
     -6.018  0.1076E+00  0.2230E-01
     -5.890  0.1676E+00  0.4373E-01
     -5.763  0.2171E+00  0.7150E-01
     -5.635  0.2577E+00  0.1044E+00
     -5.507  0.2927E+00  0.1419E+00
     -5.379  0.3272E+00  0.1837E+00
     -5.251  0.3556E+00  0.2292E+00
     -5.123  0.3880E+00  0.2788E+00
     -4.995  0.4201E+00  0.3325E+00
     -4.868  0.4425E+00  0.3891E+00
     -4.740  0.4818E+00  0.4507E+00
     -4.612  0.5161E+00  0.5167E+00
     -4.484  0.5366E+00  0.5853E+00
     -4.356  0.5906E+00  0.6608E+00
     -4.228  0.6448E+00  0.7432E+00
     -4.100  0.6881E+00  0.8312E+00
     -3.972  0.7814E+00  0.9311E+00
     -3.845  0.8578E+00  0.1041E+01
     -3.717  0.8471E+00  0.1149E+01
     -3.589  0.8246E+00  0.1255E+01
     -3.461  0.7940E+00  0.1356E+01
     -3.333  0.7349E+00  0.1450E+01
     -3.205  0.6891E+00  0.1538E+01
     -3.077  0.6412E+00  0.1620E+01
     -2.950  0.5965E+00  0.1696E+01
     -2.822  0.5462E+00  0.1766E+01
     -2.694  0.4754E+00  0.1827E+01
     -2.566  0.4354E+00  0.1883E+01
     -2.438  0.3674E+00  0.1930E+01
     -2.310  0.2631E+00  0.1963E+01
     -2.182  0.1991E+00  0.1989E+01
     -2.055  0.1584E+00  0.2009E+01
     -1.927  0.1506E+00  0.2028E+01
     -1.799  0.2222E+00  0.2057E+01
     -1.671  0.3328E+00  0.2099E+01
     -1.543  0.4019E+00  0.2151E+01
     -1.415  0.5170E+00  0.2217E+01
     -1.287  0.7851E+00  0.2317E+01
     -1.160  0.1081E+01  0.2455E+01
     -1.032  0.1187E+01  0.2607E+01
     -0.904  0.1066E+01  0.2743E+01
     -0.776  0.8888E+00  0.2857E+01
     -0.648  0.7387E+00  0.2951E+01
     -0.520  0.6346E+00  0.3033E+01
     -0.392  0.5811E+00  0.3107E+01
     -0.265  0.5458E+00  0.3177E+01
     -0.137  0.4879E+00  0.3239E+01
     -0.009  0.4290E+00  0.3294E+01
      0.119  0.4165E+00  0.3347E+01
      0.247  0.3984E+00  0.3398E+01
      0.375  0.3596E+00  0.3444E+01
      0.503  0.3218E+00  0.3485E+01
      0.630  0.3012E+00  0.3524E+01
      0.758  0.2925E+00  0.3561E+01
      0.886  0.2869E+00  0.3598E+01
      1.014  0.2571E+00  0.3631E+01
      1.142  0.2550E+00  0.3663E+01
      1.270  0.3799E+00  0.3712E+01
      1.398  0.6303E+00  0.3793E+01
      1.526  0.9291E+00  0.3911E+01
      1.653  0.1108E+01  0.4053E+01
      1.781  0.1134E+01  0.4198E+01
      1.909  0.1101E+01  0.4339E+01
      2.037  0.1066E+01  0.4475E+01
      2.165  0.1090E+01  0.4614E+01
      2.293  0.1147E+01  0.4761E+01
      2.421  0.1169E+01  0.4911E+01
      2.548  0.1181E+01  0.5062E+01
      2.676  0.1305E+01  0.5228E+01
      2.804  0.1509E+01  0.5421E+01
      2.932  0.1574E+01  0.5623E+01
      3.060  0.1503E+01  0.5815E+01
      3.188  0.1474E+01  0.6003E+01
      3.316  0.1425E+01  0.6185E+01
      3.443  0.1393E+01  0.6363E+01
      3.571  0.1433E+01  0.6547E+01
      3.699  0.1387E+01  0.6724E+01
      3.827  0.1277E+01  0.6887E+01
      3.955  0.1242E+01  0.7046E+01
      4.083  0.1243E+01  0.7205E+01
      4.211  0.1191E+01  0.7358E+01
      4.338  0.1072E+01  0.7495E+01
      4.466  0.9113E+00  0.7611E+01
      4.594  0.7421E+00  0.7706E+01
      4.722  0.5872E+00  0.7781E+01
      4.850  0.4675E+00  0.7841E+01
      4.978  0.3939E+00  0.7891E+01
      5.106  0.3334E+00  0.7934E+01
      5.233  0.2465E+00  0.7965E+01
      5.361  0.1538E+00  0.7985E+01
      5.489  0.7968E-01  0.7995E+01
      5.617  0.2987E-01  0.7999E+01
      5.745  0.6822E-02  0.8000E+01
      5.873  0.1526E-02  0.8000E+01
      6.001  0.6081E-02  0.8001E+01
      6.128  0.2938E-01  0.8005E+01
      6.256  0.8759E-01  0.8016E+01
      6.384  0.1784E+00  0.8039E+01
      6.512  0.2824E+00  0.8075E+01
      6.640  0.3904E+00  0.8125E+01
      6.768  0.4984E+00  0.8188E+01
      6.896  0.5648E+00  0.8261E+01
      7.023  0.6095E+00  0.8339E+01
      7.151  0.7162E+00  0.8430E+01
      7.279  0.8857E+00  0.8543E+01
      7.407  0.1061E+01  0.8679E+01
      7.535  0.1240E+01  0.8837E+01
      7.663  0.1428E+01  0.9020E+01
      7.791  0.1571E+01  0.9221E+01
      7.919  0.1566E+01  0.9421E+01
      8.046  0.1383E+01  0.9598E+01
      8.174  0.1229E+01  0.9755E+01
      8.302  0.1254E+01  0.9915E+01
      8.430  0.1291E+01  0.1008E+02
      8.558  0.1242E+01  0.1024E+02
      8.686  0.1379E+01  0.1042E+02
      8.814  0.1735E+01  0.1064E+02
      8.941  0.1940E+01  0.1089E+02
      9.069  0.1849E+01  0.1112E+02
      9.197  0.1692E+01  0.1134E+02
      9.325  0.1625E+01  0.1155E+02
      9.453  0.1559E+01  0.1175E+02
      9.581  0.1465E+01  0.1193E+02
      9.709  0.1326E+01  0.1210E+02
      9.836  0.1204E+01  0.1226E+02
      9.964  0.1253E+01  0.1242E+02
     10.092  0.1375E+01  0.1259E+02
     10.220  0.1384E+01  0.1277E+02
     10.348  0.1300E+01  0.1294E+02
     10.476  0.1212E+01  0.1309E+02
     10.604  0.1131E+01  0.1323E+02
     10.731  0.1076E+01  0.1337E+02
     10.859  0.1187E+01  0.1352E+02
     10.987  0.1388E+01  0.1370E+02
     11.115  0.1438E+01  0.1389E+02
     11.243  0.1278E+01  0.1405E+02
     11.371  0.1003E+01  0.1418E+02
     11.499  0.7971E+00  0.1428E+02
     11.626  0.7437E+00  0.1437E+02
     11.754  0.8380E+00  0.1448E+02
     11.882  0.1083E+01  0.1462E+02
     12.010  0.1388E+01  0.1480E+02
     12.138  0.1589E+01  0.1500E+02
     12.266  0.1532E+01  0.1520E+02
     12.394  0.1249E+01  0.1536E+02
     12.521  0.1003E+01  0.1548E+02
     12.649  0.9177E+00  0.1560E+02
     12.777  0.9068E+00  0.1572E+02
     12.905  0.9514E+00  0.1584E+02
     13.033  0.1144E+01  0.1599E+02
     13.161  0.1501E+01  0.1618E+02
     13.289  0.1757E+01  0.1640E+02
     13.417  0.1635E+01  0.1661E+02
     13.544  0.1281E+01  0.1677E+02
     13.672  0.1001E+01  0.1690E+02
     13.800  0.9093E+00  0.1702E+02
     13.928  0.9992E+00  0.1715E+02
     14.056  0.1135E+01  0.1729E+02
     14.184  0.1222E+01  0.1745E+02
     14.312  0.1420E+01  0.1763E+02
     14.439  0.1642E+01  0.1784E+02
     14.567  0.1560E+01  0.1804E+02
     14.695  0.1314E+01  0.1821E+02
     14.823  0.1248E+01  0.1837E+02
     14.951  0.1317E+01  0.1854E+02
     15.079  0.1333E+01  0.1871E+02
     15.207  0.1348E+01  0.1888E+02
     15.334  0.1427E+01  0.1906E+02
     15.462  0.1419E+01  0.1924E+02
     15.590  0.1289E+01  0.1941E+02
     15.718  0.1231E+01  0.1956E+02
     15.846  0.1228E+01  0.1972E+02
     15.974  0.1197E+01  0.1987E+02
     16.102  0.1257E+01  0.2003E+02
     16.229  0.1336E+01  0.2021E+02
     16.357  0.1303E+01  0.2037E+02
     16.485  0.1283E+01  0.2054E+02
     16.613  0.1253E+01  0.2070E+02
     16.741  0.1139E+01  0.2084E+02
     16.869  0.1119E+01  0.2099E+02
     16.997  0.1245E+01  0.2114E+02
     17.124  0.1370E+01  0.2132E+02
     17.252  0.1480E+01  0.2151E+02
     17.380  0.1574E+01  0.2171E+02
     17.508  0.1589E+01  0.2191E+02
     17.636  0.1565E+01  0.2211E+02
     17.764  0.1599E+01  0.2232E+02
     17.892  0.1675E+01  0.2253E+02
     18.019  0.1654E+01  0.2274E+02
     18.147  0.1495E+01  0.2293E+02
     18.275  0.1401E+01  0.2311E+02
     18.403  0.1521E+01  0.2331E+02
     18.531  0.1682E+01  0.2352E+02
     18.659  0.1685E+01  0.2374E+02
     18.787  0.1578E+01  0.2394E+02
     18.914  0.1518E+01  0.2413E+02
     19.042  0.1594E+01  0.2434E+02
     19.170  0.1726E+01  0.2456E+02
     19.298  0.1817E+01  0.2479E+02
     19.426  0.1830E+01  0.2503E+02
     19.554  0.1734E+01  0.2525E+02
     19.682  0.1581E+01  0.2545E+02
     19.810  0.1400E+01  0.2563E+02
     19.937  0.1314E+01  0.2580E+02
     20.065  0.1356E+01  0.2597E+02
     20.193  0.1392E+01  0.2615E+02
     20.321  0.1420E+01  0.2633E+02
     20.449  0.1556E+01  0.2653E+02
     20.577  0.1739E+01  0.2675E+02
     20.705  0.1711E+01  0.2697E+02
     20.832  0.1512E+01  0.2716E+02
     20.960  0.1406E+01  0.2734E+02
     21.088  0.1404E+01  0.2752E+02
     21.216  0.1322E+01  0.2769E+02
     21.344  0.1227E+01  0.2785E+02
     21.472  0.1275E+01  0.2801E+02
     21.600  0.1373E+01  0.2819E+02
     21.727  0.1454E+01  0.2837E+02
     21.855  0.1585E+01  0.2857E+02
     21.983  0.1677E+01  0.2879E+02
     22.111  0.1629E+01  0.2900E+02
     22.239  0.1537E+01  0.2919E+02
     22.367  0.1566E+01  0.2939E+02
     22.495  0.1577E+01  0.2960E+02
     22.622  0.1420E+01  0.2978E+02
     22.750  0.1371E+01  0.2995E+02
     22.878  0.1477E+01  0.3014E+02
     23.006  0.1552E+01  0.3034E+02
     23.134  0.1746E+01  0.3056E+02
     23.262  0.1896E+01  0.3081E+02
     23.390  0.1695E+01  0.3102E+02
     23.517  0.1464E+01  0.3121E+02
     23.645  0.1345E+01  0.3138E+02
     23.773  0.1133E+01  0.3153E+02
     23.901  0.7892E+00  0.3163E+02
     24.029  0.4590E+00  0.3169E+02
     24.157  0.3170E+00  0.3173E+02
     24.285  0.3052E+00  0.3177E+02
     24.412  0.2579E+00  0.3180E+02
     24.540  0.2403E+00  0.3183E+02
     24.668  0.2689E+00  0.3186E+02
     24.796  0.2400E+00  0.3189E+02
     24.924  0.1640E+00  0.3192E+02
     25.052  0.1216E+00  0.3193E+02
     25.180  0.1264E+00  0.3195E+02
     25.308  0.1086E+00  0.3196E+02
     25.435  0.5515E-01  0.3197E+02
     25.563  0.1799E-01  0.3197E+02
     25.691  0.1140E-01  0.3197E+02
     25.819  0.1382E-01  0.3197E+02
     25.947  0.1236E-01  0.3198E+02
     26.075  0.1386E-01  0.3198E+02
     26.203  0.2901E-01  0.3198E+02
     26.330  0.4461E-01  0.3199E+02
     26.458  0.3718E-01  0.3199E+02
     26.586  0.1625E-01  0.3199E+02
     26.714  0.3626E-02  0.3199E+02
     26.842  0.4023E-03  0.3199E+02
     26.970  0.9624E-04  0.3199E+02
     27.098  0.7127E-03  0.3199E+02
     27.225  0.3164E-02  0.3199E+02
     27.353  0.7048E-02  0.3200E+02
     27.481  0.9643E-02  0.3200E+02
     27.609  0.1066E-01  0.3200E+02
     27.737  0.8588E-02  0.3200E+02
     27.865  0.3840E-02  0.3200E+02
     27.993  0.1106E-02  0.3200E+02
     28.120  0.9188E-03  0.3200E+02
     28.248  0.1106E-02  0.3200E+02
     28.376  0.6749E-03  0.3200E+02
     28.504  0.1922E-03  0.3200E+02
     28.632  0.2534E-04  0.3200E+02
     28.760  0.1536E-05  0.3200E+02
     28.888  0.4253E-07  0.3200E+02
     29.015  0.5347E-09  0.3200E+02
     29.143  0.3035E-11  0.3200E+02
     29.271  0.7746E-14  0.3200E+02
     29.399  0.8837E-17  0.3200E+02
     29.527  0.0000E+00  0.3200E+02
     29.655  0.0000E+00  0.3200E+02
     29.783  0.0000E+00  0.3200E+02
     29.910  0.0000E+00  0.3200E+02
     30.038  0.0000E+00  0.3200E+02
     30.166  0.0000E+00  0.3200E+02
