    2    2    1    1
  0.2072484E+02  0.3884592E-09  0.3884592E-09  0.3884592E-09  0.5000000E-15
   1.0000000000000000E-004
  CAR 
 unknown system                          
      8    165     16

  0.3742002E-15  0.3742002E-15  0.3742002E-15  0.2035416E-03
    1       -6.191875   1.000000
    2        5.458885   0.993759
    3        5.458885   0.993759
    4        5.458885   0.993759
    5        8.074147   0.000000
    6        8.074147   0.000000
    7        8.074147   0.000000
    8        8.529724   0.000000
    9       13.214013   0.000000
   10       13.214013   0.000000
   11       13.348499   0.000000
   12       16.655514   0.000000
   13       16.655514   0.000000
   14       16.655514   0.000000
   15       20.750607   0.000000
   16       28.166202   0.000000

  0.5882353E-01  0.3747003E-15  0.3747003E-15  0.1628333E-02
    1       -6.147909   1.000000
    2        4.992366   1.000000
    3        5.388672   0.998626
    4        5.388672   0.998626
    5        8.099860   0.000000
    6        8.178500   0.000000
    7        8.178500   0.000000
    8        8.895591   0.000000
    9       13.070680   0.000000
   10       13.070680   0.000000
   11       13.540737   0.000000
   12       16.485427   0.000000
   13       16.942380   0.000000
   14       16.942380   0.000000
   15       21.055024   0.000000
   16       27.608427   0.000000

  0.1176471E+00  0.3816392E-15  0.3816392E-15  0.1628333E-02
    1       -6.016642   1.000000
    2        4.032799   1.000000
    3        5.213603   0.999988
    4        5.213603   0.999988
    5        7.954874   0.000000
    6        8.439587   0.000000
    7        8.439587   0.000000
    8        9.804954   0.000000
    9       12.781817   0.000000
   10       12.781817   0.000000
   11       14.042155   0.000000
   12       16.148185   0.000000
   13       17.673675   0.000000
   14       17.673675   0.000000
   15       21.826858   0.000000
   16       26.359985   0.000000

  0.1764706E+00  0.3885781E-15  0.3885781E-15  0.1628333E-02
    1       -5.800404   1.000000
    2        2.962416   1.000000
    3        4.997504   1.000000
    4        4.997504   1.000000
    5        7.730378   0.000000
    6        8.741558   0.000000
    7        8.741558   0.000000
    8       10.847322   0.000000
    9       12.576524   0.000000
   10       12.576524   0.000000
   11       14.512403   0.000000
   12       16.104041   0.000000
   13       18.652332   0.000000
   14       18.652332   0.000000
   15       22.794717   0.000000
   16       24.820198   0.000000

  0.2352941E+00  0.3885781E-15  0.3885781E-15  0.1628333E-02
    1       -5.503954   1.000000
    2        1.900895   1.000000
    3        4.786078   1.000000
    4        4.786078   1.000000
    5        7.497699   0.000000
    6        8.961529   0.000000
    7        8.961529   0.000000
    8       11.887102   0.000000
    9       12.625365   0.000000
   10       12.625365   0.000000
   11       14.469292   0.000000
   12       16.866665   0.000000
   13       19.703946   0.000000
   14       19.703946   0.000000
   15       23.216544   0.000000
   16       23.361271   0.000000

  0.2941176E+00  0.3885781E-15  0.3885781E-15  0.1628333E-02
    1       -5.136812   1.000000
    2        0.898482   1.000000
    3        4.603597   1.000000
    4        4.603597   1.000000
    5        7.290876   0.000000
    6        9.034871   0.000000
    7        9.034871   0.000000
    8       12.827118   0.000000
    9       13.008250   0.000000
   10       13.008250   0.000000
   11       14.294113   0.000000
   12       18.056425   0.000000
   13       20.289826   0.000000
   14       20.289826   0.000000
   15       22.427860   0.000000
   16       22.542727   0.000000

  0.3529412E+00  0.3885781E-15  0.3885781E-15  0.1628333E-02
    1       -4.719387   1.000000
    2       -0.005915   1.000000
    3        4.461697   1.000000
    4        4.461697   1.000000
    5        7.127094   0.000000
    6        8.998268   0.000000
    7        8.998268   0.000000
    8       13.309494   0.000000
    9       13.691771   0.000000
   10       13.691771   0.000000
   11       14.598717   0.000000
   12       19.090265   0.000000
   13       19.487344   0.000000
   14       19.487344   0.000000
   15       21.742812   0.000000
   16       23.287002   0.000000

  0.4117647E+00  0.3885781E-15  0.3885781E-15  0.1628333E-02
    1       -4.300163   1.000000
    2       -0.753977   1.000000
    3        4.365521   1.000000
    4        4.365521   1.000000
    5        7.014786   0.000000
    6        8.928755   0.000000
    7        8.928755   0.000000
    8       13.290010   0.000000
    9       14.592528   0.000000
   10       14.592528   0.000000
   11       15.474117   0.000000
   12       18.224013   0.000000
   13       18.224013   0.000000
   14       18.990628   0.000000
   15       22.336460   0.000000
   16       24.656153   0.000000

  0.4705882E+00  0.3608225E-15  0.3608225E-15  0.1628333E-02
    1       -3.998003   1.000000
    2       -1.221743   1.000000
    3        4.317109   1.000000
    4        4.317109   1.000000
    5        6.957858   0.000000
    6        8.881584   0.000000
    7        8.881584   0.000000
    8       13.223592   0.000000
    9       15.605831   0.000000
   10       15.605831   0.000000
   11       16.355641   0.000000
   12       17.007200   0.000000
   13       17.007200   0.000000
   14       18.233502   0.000000
   15       23.845126   0.000000
   16       25.708915   0.000000

  0.5882353E-01  0.5882353E-01  0.3742002E-15  0.1221250E-02
    1       -6.133212   1.000000
    2        5.074337   1.000000
    3        5.240512   0.999974
    4        5.240512   0.999974
    5        7.935347   0.000000
    6        8.364703   0.000000
    7        8.364703   0.000000
    8        8.899887   0.000000
    9       12.790228   0.000000
   10       13.279463   0.000000
   11       13.604244   0.000000
   12       16.758518   0.000000
   13       16.758518   0.000000
   14       16.950737   0.000000
   15       21.170182   0.000000
   16       27.343163   0.000000

  0.1176471E+00  0.5882353E-01  0.3712308E-15  0.4884999E-02
    1       -6.030917   1.000000
    2        4.310833   1.000000
    3        5.018526   1.000000
    4        5.159250   0.999998
    5        7.923840   0.000000
    6        8.417074   0.000000
    7        8.683486   0.000000
    8        9.580649   0.000000
    9       12.419191   0.000000
   10       13.221024   0.000000
   11       14.009983   0.000000
   12       16.496368   0.000000
   13       17.135999   0.000000
   14       17.648864   0.000000
   15       21.809303   0.000000
   16       26.242789   0.000000

  0.1764706E+00  0.5882353E-01  0.3816392E-15  0.4884999E-02
    1       -5.842747   1.000000
    2        3.293716   1.000000
    3        4.782745   1.000000
    4        4.993918   1.000000
    5        7.967811   0.000000
    6        8.420877   0.000000
    7        9.028624   0.000000
    8       10.469189   0.000000
    9       12.209257   0.000000
   10       13.077757   0.000000
   11       14.568498   0.000000
   12       16.241589   0.000000
   13       17.925545   0.000000
   14       18.647629   0.000000
   15       22.729928   0.000000
   16       24.726331   0.000000

  0.2352941E+00  0.5882353E-01  0.3885781E-15  0.4884999E-02
    1       -5.572443   1.000000
    2        2.242700   1.000000
    3        4.570235   1.000000
    4        4.771039   1.000000
    5        7.829131   0.000000
    6        8.618860   0.000000
    7        9.285726   0.000000
    8       11.132393   0.000000
    9       12.480483   0.000000
   10       13.093319   0.000000
   11       14.753210   0.000000
   12       16.641616   0.000000
   13       18.910203   0.000000
   14       19.753182   0.000000
   15       23.210103   0.000000
   16       23.304175   0.000000

  0.2941176E+00  0.5882353E-01  0.3747003E-15  0.4884999E-02
    1       -5.227524   1.000000
    2        1.228418   1.000000
    3        4.400195   1.000000
    4        4.542850   1.000000
    5        7.639846   0.000000
    6        8.779129   0.000000
    7        9.377739   0.000000
    8       11.599250   0.000000
    9       13.247807   0.000000
   10       13.410487   0.000000
   11       14.555439   0.000000
   12       17.691755   0.000000
   13       19.716487   0.000000
   14       20.637551   0.000000
   15       22.077039   0.000000
   16       22.496990   0.000000

  0.3529412E+00  0.5882353E-01  0.3885781E-15  0.4884999E-02
    1       -4.823550   1.000000
    2        0.293838   1.000000
    3        4.281626   1.000000
    4        4.337284   1.000000
    5        7.471919   0.000000
    6        8.819466   0.000000
    7        9.325137   0.000000
    8       12.197123   0.000000
    9       13.915044   0.000000
   10       14.034120   0.000000
   11       14.629297   0.000000
   12       18.754660   0.000000
   13       19.272736   0.000000
   14       20.337069   0.000000
   15       22.095239   0.000000
   16       22.390761   0.000000

  0.4117647E+00  0.5882353E-01  0.3885781E-15  0.4884999E-02
    1       -4.396260   1.000000
    2       -0.511436   1.000000
    3        4.168412   1.000000
    4        4.217924   1.000000
    5        7.346482   0.000000
    6        8.802215   0.000000
    7        9.207639   0.000000
    8       12.893120   0.000000
    9       14.003787   0.000000
   10       14.887601   0.000000
   11       15.503566   0.000000
   12       18.056967   0.000000
   13       18.540842   0.000000
   14       19.912692   0.000000
   15       22.015186   0.000000
   16       23.666742   0.000000

  0.4705882E+00  0.5882353E-01  0.3608225E-15  0.4884999E-02
    1       -4.034994   1.000000
    2       -1.090832   1.000000
    3        4.043958   1.000000
    4        4.209203   1.000000
    5        7.271965   0.000000
    6        8.796230   0.000000
    7        9.091891   0.000000
    8       13.296311   0.000000
    9       14.451203   0.000000
   10       15.830741   0.000000
   11       16.462848   0.000000
   12       16.863259   0.000000
   13       17.549841   0.000000
   14       19.047796   0.000000
   15       23.282974   0.000000
   16       25.158703   0.000000

 -0.4705882E+00  0.5882353E-01  0.3885781E-15  0.4884999E-02
    1       -3.918316   1.000000
    2       -1.262114   1.000000
    3        3.968925   1.000000
    4        4.253600   1.000000
    5        7.251906   0.000000
    6        8.835894   0.000000
    7        9.013459   0.000000
    8       13.366761   0.000000
    9       15.191332   0.000000
   10       15.424793   0.000000
   11       16.436366   0.000000
   12       17.215981   0.000000
   13       17.365811   0.000000
   14       18.371055   0.000000
   15       24.294349   0.000000
   16       25.086938   0.000000

 -0.4117647E+00  0.5882353E-01  0.3608225E-15  0.4884999E-02
    1       -4.139051   1.000000
    2       -0.931722   1.000000
    3        3.947051   1.000000
    4        4.347863   1.000000
    5        7.287310   0.000000
    6        8.927380   0.000000
    7        8.982134   0.000000
    8       13.359336   0.000000
    9       14.354804   0.000000
   10       14.895242   0.000000
   11       16.530623   0.000000
   12       16.983893   0.000000
   13       18.437999   0.000000
   14       19.064397   0.000000
   15       22.734243   0.000000
   16       24.609040   0.000000

 -0.3529412E+00  0.5882353E-01  0.3608225E-15  0.4884999E-02
    1       -4.537936   1.000000
    2       -0.260629   1.000000
    3        3.981174   1.000000
    4        4.487480   1.000000
    5        7.377197   0.000000
    6        8.983590   0.000000
    7        9.052745   0.000000
    8       13.124500   0.000000
    9       13.407900   0.000000
   10       14.389734   0.000000
   11       15.485297   0.000000
   12       18.104779   0.000000
   13       19.564532   0.000000
   14       19.720979   0.000000
   15       21.770124   0.000000
   16       23.143069   0.000000

 -0.2941176E+00  0.5882353E-01  0.3608225E-15  0.4884999E-02
    1       -4.963639   1.000000
    2        0.594979   1.000000
    3        4.073037   1.000000
    4        4.666069   1.000000
    5        7.518346   0.000000
    6        8.973878   0.000000
    7        9.163506   0.000000
    8       12.516597   0.000000
    9       12.668128   0.000000
   10       14.319525   0.000000
   11       14.562216   0.000000
   12       18.371309   0.000000
   13       19.557173   0.000000
   14       20.772169   0.000000
   15       21.744564   0.000000
   16       22.489875   0.000000

 -0.2352941E+00  0.5882353E-01  0.3608225E-15  0.4884999E-02
    1       -5.350439   1.000000
    2        1.559667   1.000000
    3        4.222776   1.000000
    4        4.873490   1.000000
    5        7.703593   0.000000
    6        8.882592   0.000000
    7        9.172410   0.000000
    8       11.826865   0.000000
    9       12.220811   0.000000
   10       13.617707   0.000000
   11       14.653413   0.000000
   12       17.281960   0.000000
   13       19.427352   0.000000
   14       20.596725   0.000000
   15       21.984720   0.000000
   16       23.295515   0.000000

 -0.1764706E+00  0.5882353E-01  0.3747003E-15  0.4884999E-02
    1       -5.671573   1.000000
    2        2.587453   1.000000
    3        4.428417   1.000000
    4        5.091603   1.000000
    5        7.918153   0.000000
    6        8.668747   0.000000
    7        8.992744   0.000000
    8       11.107875   0.000000
    9       12.119013   0.000000
   10       13.107085   0.000000
   11       14.776618   0.000000
   12       16.402121   0.000000
   13       18.445801   0.000000
   14       19.576071   0.000000
   15       23.170801   0.000000
   16       23.422604   0.000000

 -0.1176471E+00  0.5882353E-01  0.3747003E-15  0.4884999E-02
    1       -5.915029   1.000000
    2        3.621789   1.000000
    3        4.687559   1.000000
    4        5.286839   0.999898
    5        8.131439   0.000000
    6        8.395610   0.000000
    7        8.646314   0.000000
    8       10.272560   0.000000
    9       12.313840   0.000000
   10       13.002401   0.000000
   11       14.389307   0.000000
   12       16.291868   0.000000
   13       17.482266   0.000000
   14       18.510539   0.000000
   15       22.367446   0.000000
   16       24.841614   0.000000

 -0.5882353E-01  0.5882353E-01  0.3816392E-15  0.2442499E-02
    1       -6.074774   1.000000
    2        4.520054   1.000000
    3        5.020480   1.000000
    4        5.404291   0.998038
    5        8.195319   0.000000
    6        8.269545   0.000000
    7        8.276499   0.000000
    8        9.422489   0.000000
    9       12.683124   0.000000
   10       13.096178   0.000000
   11       13.840153   0.000000
   12       16.528249   0.000000
   13       16.868834   0.000000
   14       17.588392   0.000000
   15       21.520712   0.000000
   16       26.358943   0.000000

  0.1176471E+00  0.1176471E+00  0.3742002E-15  0.1221250E-02
    1       -5.957636   1.000000
    2        4.237709   1.000000
    3        4.767212   1.000000
    4        4.767212   1.000000
    5        7.592040   0.000000
    6        9.052834   0.000000
    7        9.052834   0.000000
    8        9.566157   0.000000
    9       12.049770   0.000000
   10       13.475733   0.000000
   11       14.295121   0.000000
   12       17.065042   0.000000
   13       17.065042   0.000000
   14       17.522229   0.000000
   15       22.325521   0.000000
   16       25.860684   0.000000

  0.1764706E+00  0.1176471E+00  0.3712308E-15  0.4884999E-02
    1       -5.797922   1.000000
    2        3.483694   1.000000
    3        4.515005   1.000000
    4        4.600394   1.000000
    5        7.543578   0.000000
    6        9.096757   0.000000
    7        9.452491   0.000000
    8       10.063660   0.000000
    9       11.983134   0.000000
   10       13.521160   0.000000
   11       14.823589   0.000000
   12       16.848543   0.000000
   13       17.517172   0.000000
   14       18.360385   0.000000
   15       23.165320   0.000000
   16       24.648800   0.000000

  0.2352941E+00  0.1176471E+00  0.3816392E-15  0.4884999E-02
    1       -5.554717   1.000000
    2        2.523865   1.000000
    3        4.294946   1.000000
    4        4.387649   1.000000
    5        7.686252   0.000000
    6        9.004818   0.000000
    7        9.774202   0.000000
    8       10.306021   0.000000
    9       12.540648   0.000000
   10       13.567903   0.000000
   11       15.280918   0.000000
   12       16.808595   0.000000
   13       18.321950   0.000000
   14       19.488717   0.000000
   15       23.144659   0.000000
   16       23.468364   0.000000

  0.2941176E+00  0.1176471E+00  0.3747003E-15  0.4884999E-02
    1       -5.233901   1.000000
    2        1.543545   1.000000
    3        4.123556   1.000000
    4        4.124585   1.000000
    5        7.788453   0.000000
    6        9.002095   0.000000
    7        9.923279   0.000000
    8       10.439823   0.000000
    9       13.479822   0.000000
   10       13.839560   0.000000
   11       15.225072   0.000000
   12       17.527231   0.000000
   13       19.156886   0.000000
   14       20.523881   0.000000
   15       21.848070   0.000000
   16       22.467394   0.000000

  0.3529412E+00  0.1176471E+00  0.3885781E-15  0.4884999E-02
    1       -4.847377   1.000000
    2        0.609098   1.000000
    3        3.859389   1.000000
    4        4.012584   1.000000
    5        7.766769   0.000000
    6        9.006742   0.000000
    7        9.892483   0.000000
    8       10.853243   0.000000
    9       14.408912   0.000000
   10       14.456420   0.000000
   11       15.030957   0.000000
   12       18.504261   0.000000
   13       19.066689   0.000000
   14       20.510177   0.000000
   15       21.701684   0.000000
   16       22.612625   0.000000

  0.4117647E+00  0.1176471E+00  0.3885781E-15  0.4884999E-02
    1       -4.421549   1.000000
    2       -0.227734   1.000000
    3        3.623971   1.000000
    4        3.962444   1.000000
    5        7.701405   0.000000
    6        8.963475   0.000000
    7        9.758084   0.000000
    8       11.571797   0.000000
    9       14.597777   0.000000
   10       15.220024   0.000000
   11       15.722694   0.000000
   12       17.938525   0.000000
   13       18.485417   0.000000
   14       20.663731   0.000000
   15       22.376142   0.000000
   16       22.804089   0.000000

  0.4705882E+00  0.1176471E+00  0.3885781E-15  0.4884999E-02
    1       -4.021866   1.000000
    2       -0.888381   1.000000
    3        3.432542   1.000000
    4        3.974385   1.000000
    5        7.657234   0.000000
    6        8.925883   0.000000
    7        9.598444   0.000000
    8       12.458593   0.000000
    9       14.433543   0.000000
   10       16.071753   0.000000
   11       16.703277   0.000000
   12       16.801340   0.000000
   13       17.646968   0.000000
   14       20.489240   0.000000
   15       22.794181   0.000000
   16       24.228719   0.000000

 -0.4705882E+00  0.1176471E+00  0.3885781E-15  0.4884999E-02
    1       -3.801010   1.000000
    2       -1.213592   1.000000
    3        3.294415   1.000000
    4        4.046156   1.000000
    5        7.659469   0.000000
    6        8.933475   0.000000
    7        9.459939   0.000000
    8       13.331285   0.000000
    9       14.322278   0.000000
   10       15.302414   0.000000
   11       16.482452   0.000000
   12       17.470404   0.000000
   13       18.079463   0.000000
   14       19.439873   0.000000
   15       24.247738   0.000000
   16       24.649860   0.000000

 -0.4117647E+00  0.1176471E+00  0.3885781E-15  0.4884999E-02
    1       -3.920598   1.000000
    2       -1.039602   1.000000
    3        3.216383   1.000000
    4        4.173324   1.000000
    5        7.713870   0.000000
    6        8.999407   0.000000
    7        9.360572   0.000000
    8       13.594137   0.000000
    9       14.185782   0.000000
   10       14.438379   0.000000
   11       16.250609   0.000000
   12       18.133135   0.000000
   13       18.689988   0.000000
   14       19.275865   0.000000
   15       22.908695   0.000000
   16       24.776414   0.000000

 -0.3529412E+00  0.1176471E+00  0.3885781E-15  0.4884999E-02
    1       -4.284145   1.000000
    2       -0.464530   1.000000
    3        3.204241   1.000000
    4        4.348984   1.000000
    5        7.817505   0.000000
    6        9.116116   0.000000
    7        9.293603   0.000000
    8       13.003574   0.000000
    9       13.197746   0.000000
   10       14.709773   0.000000
   11       16.914061   0.000000
   12       17.029406   0.000000
   13       19.944698   0.000000
   14       19.977069   0.000000
   15       21.725230   0.000000
   16       23.249961   0.000000

 -0.2941176E+00  0.1176471E+00  0.3608225E-15  0.4884999E-02
    1       -4.711603   1.000000
    2        0.324838   1.000000
    3        3.264007   1.000000
    4        4.562796   1.000000
    5        7.963390   0.000000
    6        9.222378   0.000000
    7        9.245357   0.000000
    8       12.223803   0.000000
    9       12.412231   0.000000
   10       14.964322   0.000000
   11       15.932868   0.000000
   12       17.810431   0.000000
   13       19.444001   0.000000
   14       21.157213   0.000000
   15       21.343663   0.000000
   16       22.565374   0.000000

 -0.2352941E+00  0.1176471E+00  0.3885781E-15  0.4884999E-02
    1       -5.114728   1.000000
    2        1.224459   1.000000
    3        3.404645   1.000000
    4        4.798619   1.000000
    5        8.140575   0.000000
    6        9.080964   0.000000
    7        9.288988   0.000000
    8       11.546866   0.000000
    9       11.918218   0.000000
   10       14.863597   0.000000
   11       15.266762   0.000000
   12       17.563184   0.000000
   13       19.230310   0.000000
   14       20.774717   0.000000
   15       21.465114   0.000000
   16       23.319199   0.000000

 -0.1764706E+00  0.1176471E+00  0.3885781E-15  0.4884999E-02
    1       -5.458532   1.000000
    2        2.160293   1.000000
    3        3.647843   1.000000
    4        5.029823   1.000000
    5        8.327141   0.000000
    6        8.833452   0.000000
    7        9.099519   0.000000
    8       11.110260   0.000000
    9       11.776778   0.000000
   10       13.953969   0.000000
   11       15.367848   0.000000
   12       16.796366   0.000000
   13       18.414068   0.000000
   14       20.604336   0.000000
   15       21.763923   0.000000
   16       23.760700   0.000000

 -0.1176471E+00  0.1176471E+00  0.3885781E-15  0.2442499E-02
    1       -5.727738   1.000000
    2        3.012753   1.000000
    3        4.058108   1.000000
    4        5.212436   0.999989
    5        8.432286   0.000000
    6        8.558080   0.000000
    7        8.733865   0.000000
    8       10.772391   0.000000
    9       11.943611   0.000000
   10       13.300141   0.000000
   11       14.957905   0.000000
   12       16.563261   0.000000
   13       17.598624   0.000000
   14       19.523027   0.000000
   15       23.183168   0.000000
   16       23.255497   0.000000

  0.1764706E+00  0.1764706E+00  0.3742002E-15  0.1221250E-02
    1       -5.666564   1.000000
    2        3.258838   1.000000
    3        4.248921   1.000000
    4        4.248921   1.000000
    5        7.175174   0.000000
    6        9.600673   0.000000
    7        9.924002   0.000000
    8        9.924002   0.000000
    9       12.041686   0.000000
   10       13.802566   0.000000
   11       15.278172   0.000000
   12       17.562445   0.000000
   13       17.562445   0.000000
   14       18.158636   0.000000
   15       23.943459   0.000000
   16       24.313298   0.000000

  0.2352941E+00  0.1764706E+00  0.3747003E-15  0.4884999E-02
    1       -5.450898   1.000000
    2        2.579250   1.000000
    3        4.007807   1.000000
    4        4.017363   1.000000
    5        7.134700   0.000000
    6        9.320859   0.000000
    7       10.221596   0.000000
    8       10.339983   0.000000
    9       12.632747   0.000000
   10       13.969259   0.000000
   11       15.839734   0.000000
   12       17.453526   0.000000
   13       18.058191   0.000000
   14       19.066219   0.000000
   15       23.119616   0.000000
   16       23.353064   0.000000

  0.2941176E+00  0.1764706E+00  0.3816392E-15  0.4884999E-02
    1       -5.155444   1.000000
    2        1.734372   1.000000
    3        3.707179   1.000000
    4        3.838251   1.000000
    5        7.304539   0.000000
    6        9.241089   0.000000
    7       10.181080   0.000000
    8       10.588057   0.000000
    9       13.621448   0.000000
   10       14.240417   0.000000
   11       16.084161   0.000000
   12       17.693785   0.000000
   13       18.756841   0.000000
   14       20.162301   0.000000
   15       21.782745   0.000000
   16       22.349599   0.000000

  0.3529412E+00  0.1764706E+00  0.3747003E-15  0.4884999E-02
    1       -4.789359   1.000000
    2        0.863793   1.000000
    3        3.376377   1.000000
    4        3.720861   1.000000
    5        7.441306   0.000000
    6        9.522670   0.000000
    7       10.042748   0.000000
    8       10.621461   0.000000
    9       14.728545   0.000000
   10       14.773081   0.000000
   11       15.881211   0.000000
   12       18.470770   0.000000
   13       18.874515   0.000000
   14       20.403257   0.000000
   15       21.276386   0.000000
   16       22.416415   0.000000

  0.4117647E+00  0.1764706E+00  0.3885781E-15  0.4884999E-02
    1       -4.372148   1.000000
    2        0.040726   1.000000
    3        3.065581   1.000000
    4        3.669394   1.000000
    5        7.475832   0.000000
    6        9.834126   0.000000
    7       10.234739   0.000000
    8       10.503453   0.000000
    9       15.463280   0.000000
   10       15.555768   0.000000
   11       15.966364   0.000000
   12       17.866294   0.000000
   13       18.549903   0.000000
   14       20.596397   0.000000
   15       22.128362   0.000000
   16       23.376966   0.000000

  0.4705882E+00  0.1764706E+00  0.3885781E-15  0.4884999E-02
    1       -3.951160   1.000000
    2       -0.660215   1.000000
    3        2.801453   1.000000
    4        3.684752   1.000000
    5        7.491197   0.000000
    6        9.733451   0.000000
    7       10.325926   0.000000
    8       11.106110   0.000000
    9       15.137600   0.000000
   10       16.286293   0.000000
   11       16.836560   0.000000
   12       16.999237   0.000000
   13       17.803058   0.000000
   14       21.580086   0.000000
   15       22.802945   0.000000
   16       23.418570   0.000000

 -0.4705882E+00  0.1764706E+00  0.3885781E-15  0.4884999E-02
    1       -3.646860   1.000000
    2       -1.104603   1.000000
    3        2.598289   1.000000
    4        3.765241   1.000000
    5        7.547313   0.000000
    6        9.660071   0.000000
    7       10.148894   0.000000
    8       12.135079   0.000000
    9       14.614497   0.000000
   10       15.245657   0.000000
   11       16.911089   0.000000
   12       17.743569   0.000000
   13       18.337928   0.000000
   14       21.023455   0.000000
   15       23.705166   0.000000
   16       24.459822   0.000000

 -0.4117647E+00  0.1764706E+00  0.3330669E-15  0.4884999E-02
    1       -3.653929   1.000000
    2       -1.092339   1.000000
    3        2.466032   1.000000
    4        3.906618   1.000000
    5        7.663693   0.000000
    6        9.636875   0.000000
    7        9.998377   0.000000
    8       13.236128   0.000000
    9       13.840474   0.000000
   10       14.091747   0.000000
   11       16.639504   0.000000
   12       18.961193   0.000000
   13       19.431095   0.000000
   14       19.865092   0.000000
   15       22.797962   0.000000
   16       25.099036   0.000000

 -0.3529412E+00  0.1764706E+00  0.3885781E-15  0.4884999E-02
    1       -3.965689   1.000000
    2       -0.632328   1.000000
    3        2.414622   1.000000
    4        4.101498   1.000000
    5        7.838232   0.000000
    6        9.662719   0.000000
    7        9.871325   0.000000
    8       12.922624   0.000000
    9       13.071656   0.000000
   10       14.318513   0.000000
   11       16.749766   0.000000
   12       18.656339   0.000000
   13       20.243906   0.000000
   14       20.245707   0.000000
   15       21.527726   0.000000
   16       23.673547   0.000000

 -0.2941176E+00  0.1764706E+00  0.3885781E-15  0.4884999E-02
    1       -4.387128   1.000000
    2        0.067189   1.000000
    3        2.458944   1.000000
    4        4.337863   1.000000
    5        8.054676   0.000000
    6        9.711958   0.000000
    7        9.729028   0.000000
    8       12.025439   0.000000
    9       12.260538   0.000000
   10       15.224466   0.000000
   11       17.154698   0.000000
   12       17.498526   0.000000
   13       19.554662   0.000000
   14       21.459153   0.000000
   15       21.476286   0.000000
   16       22.637733   0.000000

 -0.2352941E+00  0.1764706E+00  0.3608225E-15  0.4884999E-02
    1       -4.802335   1.000000
    2        0.853515   1.000000
    3        2.630922   1.000000
    4        4.596129   1.000000
    5        8.280678   0.000000
    6        9.498327   0.000000
    7        9.682728   0.000000
    8       11.327146   0.000000
    9       11.760034   0.000000
   10       15.799374   0.000000
   11       16.249115   0.000000
   12       17.473063   0.000000
   13       19.033000   0.000000
   14       20.499124   0.000000
   15       22.140660   0.000000
   16       23.173915   0.000000

 -0.1764706E+00  0.1764706E+00  0.3885781E-15  0.2442499E-02
    1       -5.165784   1.000000
    2        1.592830   1.000000
    3        3.003932   1.000000
    4        4.843835   1.000000
    5        8.443477   0.000000
    6        9.160015   0.000000
    7        9.399784   0.000000