       N       E                     dE             d eps       ncg     rms          rms(c)
DAV:   1     0.291703345429E+01    0.29170E+01   -0.34693E+03  5296   0.392E+02
DAV:   2    -0.833090475971E+01   -0.11248E+02   -0.11171E+02  7712   0.399E+01
DAV:   3    -0.840898415704E+01   -0.78079E-01   -0.78079E-01  5840   0.424E+00
DAV:   4    -0.840921249101E+01   -0.22833E-03   -0.22833E-03 10016   0.255E-01
DAV:   5    -0.840921250205E+01   -0.11042E-07   -0.11504E-07  5776   0.147E-03    0.367E+00
DAV:   6    -0.835975708627E+01    0.49455E-01   -0.84732E-02  7888   0.858E-01    0.224E+00
DAV:   7    -0.835393636656E+01    0.58207E-02   -0.19362E-01  8256   0.128E+00    0.186E-01
DAV:   8    -0.833751524946E+01    0.16421E-01   -0.49415E-03  6176   0.243E-01    0.953E-02
DAV:   9    -0.833864904889E+01   -0.11338E-02   -0.55327E-04  8496   0.820E-02    0.527E-02
DAV:  10    -0.833866579097E+01   -0.16742E-04   -0.23124E-05  6656   0.215E-02    0.111E-02
DAV:  11    -0.833848305631E+01    0.18273E-03   -0.30283E-07  8976   0.264E-03    0.195E-03
DAV:  12    -0.833847224687E+01    0.10809E-04   -0.67678E-08  6528   0.136E-03    0.486E-04
DAV:  13    -0.833847022920E+01    0.20177E-05   -0.55128E-09  6432   0.343E-04    0.694E-05
DAV:  14    -0.833847040844E+01   -0.17924E-06   -0.17869E-10  3632   0.682E-05    0.527E-06
DAV:  15    -0.833847015999E+01    0.24845E-06   -0.69847E-12  3520   0.139E-05    0.254E-06
DAV:  16    -0.833847014858E+01    0.11401E-07   -0.41920E-13  3360   0.586E-06
   1 F= -.83384701E+01 E0= -.83384581E+01  d E =-.833847E+01
