 vasp.5.4.1 24Jun15 (build Feb  9 2019 14:16:27) complex                         
 executed on           IFC91_ompi date 2020.09.26  22:33:56
 running on   16 total cores
 distrk:  each k-point on   16 cores,    1 groups
 distr:  one band on NCORES_PER_BAND=   1 cores,   16 groups


--------------------------------------------------------------------------------------------------------


 INCAR:
 POTCAR:    PAW_PBE Si 05Jan2001                  

 ----------------------------------------------------------------------------- 
|                                                                             |
|           W    W    AA    RRRRR   N    N  II  N    N   GGGG   !!!           |
|           W    W   A  A   R    R  NN   N  II  NN   N  G    G  !!!           |
|           W    W  A    A  R    R  N N  N  II  N N  N  G       !!!           |
|           W WW W  AAAAAA  RRRRR   N  N N  II  N  N N  G  GGG   !            |
|           WW  WW  A    A  R   R   N   NN  II  N   NN  G    G                |
|           W    W  A    A  R    R  N    N  II  N    N   GGGG   !!!           |
|                                                                             |
|      For optimal performance we recommend to set                            |
|        NCORE= 4 - approx SQRT( number of cores)                             |
|      NCORE specifies how many cores store one orbital (NPAR=cpu/NCORE).     |
|      This setting can  greatly improve the performance of VASP for DFT.     |
|      The default, NPAR=number of cores might be grossly inefficient         |
|      on modern multi-core architectures or massively parallel machines.     |
|      Do your own testing !!!!                                               |
|      Unfortunately you need to use the default for GW and RPA calculations. |
|      (for HF NCORE is supported but not extensively tested yet)             |
|                                                                             |
 ----------------------------------------------------------------------------- 


 ----------------------------------------------------------------------------- 
|                                                                             |
|  ADVICE TO THIS USER RUNNING 'VASP/VAMP'   (HEAR YOUR MASTER'S VOICE ...):  |
|                                                                             |
|      You have switched on vdW-DFT.                                          |
|      This routine was written and supplied by Jiri Klimes.                  |
|      We recommed that you carefully read and cite the following             |
|      publication                                                            |
|      J. Klimes, D.R. Bowler, A. Michelides                                  |
|        J. Phys.: Cond Matt. 22 022201 (2010)                                |
|      J. Klimes, D.R. Bowler, A. Michelides                                  |
|        Phys. Rev. B. 83, 195131 (2011)                                      |
|      and references therein.                                                |
|                                                                             |
 ----------------------------------------------------------------------------- 

 POTCAR:    PAW_PBE Si 05Jan2001                  
   VRHFIN =Si: s2p2                                                             
   LEXCH  = PE                                                                  
   EATOM  =   103.0669 eV,    7.5752 Ry                                         
                                                                                
   TITEL  = PAW_PBE Si 05Jan2001                                                
   LULTRA =        F    use ultrasoft PP ?                                      
   IUNSCR =        1    unscreen: 0-lin 1-nonlin 2-no                           
   RPACOR =    1.500    partial core radius                                     
   POMASS =   28.085; ZVAL   =    4.000    mass and valenz                      
   RCORE  =    1.900    outmost cutoff radius                                   
   RWIGS  =    2.480; RWIGS  =    1.312    wigner-seitz radius (au A)           
   ENMAX  =  245.345; ENMIN  =  184.009 eV                                      
   ICORE  =        2    local potential                                         
   LCOR   =        T    correct aug charges                                     
   LPAW   =        T    paw PP                                                  
   EAUG   =  322.069                                                            
   DEXC   =    0.000                                                            
   RMAX   =    1.950    core radius for proj-oper                               
   RAUG   =    1.300    factor for augmentation sphere                          
   RDEP   =    1.993    radius for radial grids                                 
   RDEPT  =    1.837    core radius for aug-charge                              
                                                                                
   Atomic configuration                                                         
    6 entries                                                                   
     n  l   j            E        occ.                                          
     1  0  0.50     -1785.8828   2.0000                                         
     2  0  0.50      -139.4969   2.0000                                         
     2  1  1.50       -95.5546   6.0000                                         
     3  0  0.50       -10.8127   2.0000                                         
     3  1  0.50        -4.0811   2.0000                                         
     3  2  1.50        -4.0817   0.0000                                         
   Description                                                                  
     l       E           TYP  RCUT    TYP  RCUT                                 
     0    -10.8127223     23  1.900                                             
     0     -7.6451159     23  1.900                                             
     1     -4.0811372     23  1.900                                             
     1      2.4879257     23  1.900                                             
     2     -4.0817478      7  1.900                                             
  local pseudopotential read in
  partial core-charges read in
  partial kinetic energy density read in
  atomic valenz-charges read in
  non local Contribution for L=           0  read in
    real space projection operators read in
  non local Contribution for L=           0  read in
    real space projection operators read in
  non local Contribution for L=           1  read in
    real space projection operators read in
  non local Contribution for L=           1  read in
    real space projection operators read in
    PAW grid and wavefunctions read in

   number of l-projection  operators is LMAX  =           4
   number of lm-projection operators is LMMAX =           8


 ----------------------------------------------------------------------------- 
|                                                                             |
|  ADVICE TO THIS USER RUNNING 'VASP/VAMP'   (HEAR YOUR MASTER'S VOICE ...):  |
|                                                                             |
|      You enforced a specific xc-type in the INCAR file,                     |
|      a different type was found on the POTCAR file                          |
|          I HOPE YOU KNOW, WHAT YOU ARE  DOING                               |
|                                                                             |
 ----------------------------------------------------------------------------- 

  PAW_PBE Si 05Jan2001                  :
 energy of atom  1       EATOM= -103.0669
 kinetic energy error for atom=    0.0006 (will be added to EATOM!!)


 POSCAR: bulk@JVASP-1002                         
  positions in direct lattice
  No initial velocities read in
 exchange correlation table for  LEXCH =       42
   RHO(1)=    0.500       N(1)  =     2000
   RHO(2)=  100.500       N(2)  =     4000



--------------------------------------------------------------------------------------------------------


 ion  position               nearest neighbor table
   1  0.750  0.750  0.750-   2 2.38   2 2.38   2 2.38   2 2.38
   2  0.500  0.500  0.500-   1 2.38   1 2.38   1 2.38   1 2.38

  LATTYP: Found a face centered cubic cell.
 ALAT       =     5.4936422752
  
  Lattice vectors:
  
 A1 = (   0.0000000000,   2.7468211376,   2.7468211376)
 A2 = (   2.7468211376,   0.0000000000,   2.7468211376)
 A3 = (   2.7468211376,   2.7468211376,   0.0000000000)


Analysis of symmetry for initial positions (statically):
=====================================================================
 Subroutine PRICEL returns:
 Original cell was already a primitive cell.
 

 Routine SETGRP: Setting up the symmetry group for a 
 face centered cubic supercell.


 Subroutine GETGRP returns: Found 48 space group operations
 (whereof 24 operations were pure point group operations)
 out of a pool of 48 trial point group operations.


The static configuration has the point symmetry T_d .
 The point group associated with its full space group is O_h .


Analysis of symmetry for dynamics (positions and initial velocities):
=====================================================================
 Subroutine PRICEL returns:
 Original cell was already a primitive cell.
 

 Routine SETGRP: Setting up the symmetry group for a 
 face centered cubic supercell.


 Subroutine GETGRP returns: Found 48 space group operations
 (whereof 24 operations were pure point group operations)
 out of a pool of 48 trial point group operations.


The dynamic configuration has the point symmetry T_d .
 The point group associated with its full space group is O_h .


 KPOINTS: Automatic kpoint scheme                 

Automatic generation of k-mesh.
Space group operators:
 irot       det(A)        alpha          n_x          n_y          n_z        tau_x        tau_y        tau_z
    1     1.000000     0.000000     1.000000     0.000000     0.000000     0.000000     0.000000     0.000000
    2     1.000000   120.000000    -0.577350    -0.577350    -0.577350     0.000000     0.000000     0.000000
    3     1.000000   120.000000     0.577350     0.577350     0.577350     0.000000     0.000000     0.000000
    4    -1.000000    90.000000     0.000000     0.000000    -1.000000     0.000000     0.000000     0.000000
    5    -1.000000   180.000000     0.000000     0.707107     0.707107     0.000000     0.000000     0.000000
    6    -1.000000    90.000000     0.000000     1.000000     0.000000     0.000000     0.000000     0.000000
    7     1.000000   180.000000     0.000000     0.000000     1.000000     0.000000     0.000000     0.000000
    8     1.000000   120.000000    -0.577350     0.577350     0.577350     0.000000     0.000000     0.000000
    9     1.000000   120.000000    -0.577350     0.577350    -0.577350     0.000000     0.000000     0.000000
   10    -1.000000    90.000000     0.000000     0.000000     1.000000     0.000000     0.000000     0.000000
   11    -1.000000    90.000000    -1.000000     0.000000     0.000000     0.000000     0.000000     0.000000
   12    -1.000000   180.000000     0.707107     0.000000     0.707107     0.000000     0.000000     0.000000
   13     1.000000   120.000000     0.577350    -0.577350     0.577350     0.000000     0.000000     0.000000
   14     1.000000   120.000000    -0.577350    -0.577350     0.577350     0.000000     0.000000     0.000000
   15     1.000000   180.000000     1.000000     0.000000     0.000000     0.000000     0.000000     0.000000
   16    -1.000000    90.000000     0.000000    -1.000000     0.000000     0.000000     0.000000     0.000000
   17    -1.000000   180.000000     0.707107     0.707107     0.000000     0.000000     0.000000     0.000000
   18    -1.000000    90.000000     1.000000     0.000000     0.000000     0.000000     0.000000     0.000000
   19     1.000000   120.000000     0.577350    -0.577350    -0.577350     0.000000     0.000000     0.000000
   20     1.000000   180.000000     0.000000     1.000000     0.000000     0.000000     0.000000     0.000000
   21     1.000000   120.000000     0.577350     0.577350    -0.577350     0.000000     0.000000     0.000000
   22    -1.000000   180.000000     0.000000    -0.707107     0.707107     0.000000     0.000000     0.000000
   23    -1.000000   180.000000     0.707107    -0.707107     0.000000     0.000000     0.000000     0.000000
   24    -1.000000   180.000000     0.707107     0.000000    -0.707107     0.000000     0.000000     0.000000
   25    -1.000000     0.000000     1.000000     0.000000     0.000000     0.250000     0.250000     0.250000
   26    -1.000000   120.000000    -0.577350    -0.577350    -0.577350     0.250000     0.250000     0.250000
   27    -1.000000   120.000000     0.577350     0.577350     0.577350     0.250000     0.250000     0.250000
   28     1.000000    90.000000     0.000000     0.000000    -1.000000     0.250000     0.250000     0.250000
   29     1.000000   180.000000     0.000000     0.707107     0.707107     0.250000     0.250000     0.250000
   30     1.000000    90.000000     0.000000     1.000000     0.000000     0.250000     0.250000     0.250000
   31    -1.000000   180.000000     0.000000     0.000000     1.000000     0.250000     0.250000     0.250000
   32    -1.000000   120.000000    -0.577350     0.577350     0.577350     0.250000     0.250000     0.250000
   33    -1.000000   120.000000    -0.577350     0.577350    -0.577350     0.250000     0.250000     0.250000
   34     1.000000    90.000000     0.000000     0.000000     1.000000     0.250000     0.250000     0.250000
   35     1.000000    90.000000    -1.000000     0.000000     0.000000     0.250000     0.250000     0.250000
   36     1.000000   180.000000     0.707107     0.000000     0.707107     0.250000     0.250000     0.250000
   37    -1.000000   120.000000     0.577350    -0.577350     0.577350     0.250000     0.250000     0.250000
   38    -1.000000   120.000000    -0.577350    -0.577350     0.577350     0.250000     0.250000     0.250000
   39    -1.000000   180.000000     1.000000     0.000000     0.000000     0.250000     0.250000     0.250000
   40     1.000000    90.000000     0.000000    -1.000000     0.000000     0.250000     0.250000     0.250000
   41     1.000000   180.000000     0.707107     0.707107     0.000000     0.250000     0.250000     0.250000
   42     1.000000    90.000000     1.000000     0.000000     0.000000     0.250000     0.250000     0.250000
   43    -1.000000   120.000000     0.577350    -0.577350    -0.577350     0.250000     0.250000     0.250000
   44    -1.000000   180.000000     0.000000     1.000000     0.000000     0.250000     0.250000     0.250000
   45    -1.000000   120.000000     0.577350     0.577350    -0.577350     0.250000     0.250000     0.250000
   46     1.000000   180.000000     0.000000    -0.707107     0.707107     0.250000     0.250000     0.250000
   47     1.000000   180.000000     0.707107    -0.707107     0.000000     0.250000     0.250000     0.250000
   48     1.000000   180.000000     0.707107     0.000000    -0.707107     0.250000     0.250000     0.250000
 
 Subroutine IBZKPT returns following result:
 ===========================================
 
 Found    165 irreducible k-points:
 
 Following reciprocal coordinates:
            Coordinates               Weight
  0.000000  0.000000  0.000000      1.000000
  0.058824  0.000000  0.000000      8.000000
  0.117647  0.000000  0.000000      8.000000
  0.176471  0.000000  0.000000      8.000000
  0.235294  0.000000  0.000000      8.000000
  0.294118  0.000000  0.000000      8.000000
  0.352941  0.000000  0.000000      8.000000
  0.411765  0.000000  0.000000      8.000000
  0.470588  0.000000  0.000000      8.000000
  0.058824  0.058824  0.000000      6.000000
  0.117647  0.058824  0.000000     24.000000
  0.176471  0.058824  0.000000     24.000000
  0.235294  0.058824  0.000000     24.000000
  0.294118  0.058824  0.000000     24.000000
  0.352941  0.058824  0.000000     24.000000
  0.411765  0.058824  0.000000     24.000000
  0.470588  0.058824  0.000000     24.000000
 -0.470588  0.058824  0.000000     24.000000
 -0.411765  0.058824  0.000000     24.000000
 -0.352941  0.058824  0.000000     24.000000
 -0.294118  0.058824  0.000000     24.000000
 -0.235294  0.058824  0.000000     24.000000
 -0.176471  0.058824  0.000000     24.000000
 -0.117647  0.058824  0.000000     24.000000
 -0.058824  0.058824  0.000000     12.000000
  0.117647  0.117647  0.000000      6.000000
  0.176471  0.117647  0.000000     24.000000
  0.235294  0.117647  0.000000     24.000000
  0.294118  0.117647  0.000000     24.000000
  0.352941  0.117647  0.000000     24.000000
  0.411765  0.117647  0.000000     24.000000
  0.470588  0.117647  0.000000     24.000000
 -0.470588  0.117647  0.000000     24.000000
 -0.411765  0.117647  0.000000     24.000000
 -0.352941  0.117647  0.000000     24.000000
 -0.294118  0.117647  0.000000     24.000000
 -0.235294  0.117647  0.000000     24.000000
 -0.176471  0.117647  0.000000     24.000000
 -0.117647  0.117647  0.000000     12.000000
  0.176471  0.176471  0.000000      6.000000
  0.235294  0.176471  0.000000     24.000000
  0.294118  0.176471  0.000000     24.000000
  0.352941  0.176471  0.000000     24.000000
  0.411765  0.176471  0.000000     24.000000
  0.470588  0.176471  0.000000     24.000000
 -0.470588  0.176471  0.000000     24.000000
 -0.411765  0.176471  0.000000     24.000000
 -0.352941  0.176471  0.000000     24.000000
 -0.294118  0.176471  0.000000     24.000000
 -0.235294  0.176471  0.000000     24.000000
 -0.176471  0.176471  0.000000     12.000000
  0.235294  0.235294  0.000000      6.000000
  0.294118  0.235294  0.000000     24.000000
  0.352941  0.235294  0.000000     24.000000
  0.411765  0.235294  0.000000     24.000000
  0.470588  0.235294  0.000000     24.000000
 -0.470588  0.235294  0.000000     24.000000
 -0.411765  0.235294  0.000000     24.000000
 -0.352941  0.235294  0.000000     24.000000
 -0.294118  0.235294  0.000000     24.000000
 -0.235294  0.235294  0.000000     12.000000
  0.294118  0.294118  0.000000      6.000000
  0.352941  0.294118  0.000000     24.000000
  0.411765  0.294118  0.000000     24.000000
  0.470588  0.294118  0.000000     24.000000
 -0.470588  0.294118  0.000000     24.000000
 -0.411765  0.294118  0.000000     24.000000
 -0.352941  0.294118  0.000000     24.000000
 -0.294118  0.294118  0.000000     12.000000
  0.352941  0.352941  0.000000      6.000000
  0.411765  0.352941  0.000000     24.000000
  0.470588  0.352941  0.000000     24.000000
 -0.470588  0.352941  0.000000     24.000000
 -0.411765  0.352941  0.000000     24.000000
 -0.352941  0.352941  0.000000     12.000000
  0.411765  0.411765  0.000000      6.000000
  0.470588  0.411765  0.000000     24.000000
 -0.470588  0.411765  0.000000     24.000000
 -0.411765  0.411765  0.000000     12.000000
  0.470588  0.470588  0.000000      6.000000
 -0.470588  0.470588  0.000000     12.000000
  0.176471  0.117647  0.058824     24.000000
  0.235294  0.117647  0.058824     48.000000
  0.294118  0.117647  0.058824     48.000000
  0.352941  0.117647  0.058824     48.000000
  0.411765  0.117647  0.058824     48.000000
  0.470588  0.117647  0.058824     48.000000
 -0.470588  0.117647  0.058824     48.000000
  0.235294  0.176471  0.058824     24.000000
  0.294118  0.176471  0.058824     48.000000
  0.352941  0.176471  0.058824     48.000000
  0.411765  0.176471  0.058824     48.000000
  0.470588  0.176471  0.058824     48.000000
 -0.470588  0.176471  0.058824     48.000000
 -0.411765  0.176471  0.058824     48.000000
 -0.352941  0.176471  0.058824     48.000000
 -0.294118  0.176471  0.058824     48.000000
 -0.235294  0.176471  0.058824     48.000000
 -0.176471  0.176471  0.058824     48.000000
 -0.117647  0.176471  0.058824     24.000000
  0.294118  0.235294  0.058824     24.000000
  0.352941  0.235294  0.058824     48.000000
  0.411765  0.235294  0.058824     48.000000
  0.470588  0.235294  0.058824     48.000000
 -0.470588  0.235294  0.058824     48.000000
 -0.411765  0.235294  0.058824     48.000000
 -0.352941  0.235294  0.058824     48.000000
 -0.294118  0.235294  0.058824     48.000000
 -0.235294  0.235294  0.058824     48.000000
 -0.176471  0.235294  0.058824     24.000000
  0.352941  0.294118  0.058824     24.000000
  0.411765  0.294118  0.058824     48.000000
  0.470588  0.294118  0.058824     48.000000
 -0.470588  0.294118  0.058824     48.000000
 -0.411765  0.294118  0.058824     48.000000
 -0.352941  0.294118  0.058824     48.000000
 -0.294118  0.294118  0.058824     48.000000
 -0.235294  0.294118  0.058824     24.000000
  0.411765  0.352941  0.058824     24.000000
  0.470588  0.352941  0.058824     48.000000
 -0.470588  0.352941  0.058824     48.000000
 -0.411765  0.352941  0.058824     48.000000
 -0.352941  0.352941  0.058824     48.000000
 -0.294118  0.352941  0.058824     24.000000
  0.470588  0.411765  0.058824     24.000000
 -0.470588  0.411765  0.058824     48.000000
 -0.411765  0.411765  0.058824     48.000000
 -0.352941  0.411765  0.058824     24.000000
 -0.470588  0.470588  0.058824     24.000000
 -0.411765  0.470588  0.058824     24.000000
  0.352941  0.235294  0.117647     24.000000
  0.411765  0.235294  0.117647     48.000000
  0.470588  0.235294  0.117647     48.000000
 -0.470588  0.235294  0.117647     48.000000
 -0.411765  0.235294  0.117647     48.000000
  0.411765  0.294118  0.117647     24.000000
  0.470588  0.294118  0.117647     48.000000
 -0.470588  0.294118  0.117647     48.000000
 -0.411765  0.294118  0.117647     48.000000
 -0.352941  0.294118  0.117647     48.000000
 -0.294118  0.294118  0.117647     48.000000
 -0.235294  0.294118  0.117647     48.000000
 -0.176471  0.294118  0.117647     24.000000
  0.470588  0.352941  0.117647     24.000000
 -0.470588  0.352941  0.117647     48.000000
 -0.411765  0.352941  0.117647     48.000000
 -0.352941  0.352941  0.117647     48.000000
 -0.294118  0.352941  0.117647     48.000000
 -0.235294  0.352941  0.117647     24.000000
 -0.470588  0.411765  0.117647     24.000000
 -0.411765  0.411765  0.117647     48.000000
 -0.352941  0.411765  0.117647     48.000000
 -0.294118  0.411765  0.117647     24.000000
 -0.411765  0.470588  0.117647     24.000000
 -0.352941  0.470588  0.117647     24.000000
 -0.470588  0.352941  0.176471     24.000000
 -0.411765  0.352941  0.176471     48.000000
 -0.352941  0.352941  0.176471     48.000000
 -0.411765  0.411765  0.176471     24.000000
 -0.352941  0.411765  0.176471     48.000000
 -0.294118  0.411765  0.176471     48.000000
 -0.235294  0.411765  0.176471     24.000000
 -0.352941  0.470588  0.176471     24.000000
 -0.294118  0.470588  0.176471     24.000000
 -0.294118  0.470588  0.235294     24.000000
 
 Following cartesian coordinates:
            Coordinates               Weight
  0.000000  0.000000  0.000000      1.000000
 -0.010708  0.010708  0.010708      8.000000
 -0.021415  0.021415  0.021415      8.000000
 -0.032123  0.032123  0.032123      8.000000
 -0.042830  0.042830  0.042830      8.000000
 -0.053538  0.053538  0.053538      8.000000
 -0.064245  0.064245  0.064245      8.000000
 -0.074953  0.074953  0.074953      8.000000
 -0.085661  0.085661  0.085661      8.000000
  0.000000  0.000000  0.021415      6.000000
 -0.010708  0.010708  0.032123     24.000000
 -0.021415  0.021415  0.042830     24.000000
 -0.032123  0.032123  0.053538     24.000000
 -0.042830  0.042830  0.064245     24.000000
 -0.053538  0.053538  0.074953     24.000000
 -0.064245  0.064245  0.085661     24.000000
 -0.074953  0.074953  0.096368     24.000000
  0.096368 -0.096368 -0.074953     24.000000
  0.085661 -0.085661 -0.064245     24.000000
  0.074953 -0.074953 -0.053538     24.000000
  0.064245 -0.064245 -0.042830     24.000000
  0.053538 -0.053538 -0.032123     24.000000
  0.042830 -0.042830 -0.021415     24.000000
  0.032123 -0.032123 -0.010708     24.000000
  0.021415 -0.021415  0.000000     12.000000
  0.000000  0.000000  0.042830      6.000000
 -0.010708  0.010708  0.053538     24.000000
 -0.021415  0.021415  0.064245     24.000000
 -0.032123  0.032123  0.074953     24.000000
 -0.042830  0.042830  0.085661     24.000000
 -0.053538  0.053538  0.096368     24.000000
 -0.064245  0.064245  0.107076     24.000000
  0.107076 -0.107076 -0.064245     24.000000
  0.096368 -0.096368 -0.053538     24.000000
  0.085661 -0.085661 -0.042830     24.000000
  0.074953 -0.074953 -0.032123     24.000000
  0.064245 -0.064245 -0.021415     24.000000
  0.053538 -0.053538 -0.010708     24.000000
  0.042830 -0.042830  0.000000     12.000000
  0.000000  0.000000  0.064245      6.000000
 -0.010708  0.010708  0.074953     24.000000
 -0.021415  0.021415  0.085661     24.000000
 -0.032123  0.032123  0.096368     24.000000
 -0.042830  0.042830  0.107076     24.000000
 -0.053538  0.053538  0.117783     24.000000
  0.117783 -0.117783 -0.053538     24.000000
  0.107076 -0.107076 -0.042830     24.000000
  0.096368 -0.096368 -0.032123     24.000000
  0.085661 -0.085661 -0.021415     24.000000
  0.074953 -0.074953 -0.010708     24.000000
  0.064245 -0.064245  0.000000     12.000000
  0.000000  0.000000  0.085661      6.000000
 -0.010708  0.010708  0.096368     24.000000
 -0.021415  0.021415  0.107076     24.000000
 -0.032123  0.032123  0.117783     24.000000
 -0.042830  0.042830  0.128491     24.000000
  0.128491 -0.128491 -0.042830     24.000000
  0.117783 -0.117783 -0.032123     24.000000
  0.107076 -0.107076 -0.021415     24.000000
  0.096368 -0.096368 -0.010708     24.000000
  0.085661 -0.085661  0.000000     12.000000
  0.000000  0.000000  0.107076      6.000000
 -0.010708  0.010708  0.117783     24.000000
 -0.021415  0.021415  0.128491     24.000000
 -0.032123  0.032123  0.139198     24.000000
  0.139198 -0.139198 -0.032123     24.000000
  0.128491 -0.128491 -0.021415     24.000000
  0.117783 -0.117783 -0.010708     24.000000
  0.107076 -0.107076  0.000000     12.000000
  0.000000  0.000000  0.128491      6.000000
 -0.010708  0.010708  0.139198     24.000000
 -0.021415  0.021415  0.149906     24.000000
  0.149906 -0.149906 -0.021415     24.000000
  0.139198 -0.139198 -0.010708     24.000000
  0.128491 -0.128491  0.000000     12.000000
  0.000000  0.000000  0.149906      6.000000
 -0.010708  0.010708  0.160613     24.000000
  0.160613 -0.160613 -0.010708     24.000000
  0.149906 -0.149906  0.000000     12.000000
  0.000000  0.000000  0.171321      6.000000
  0.171321 -0.171321  0.000000     12.000000
  0.000000  0.021415  0.042830     24.000000
 -0.010708  0.032123  0.053538     48.000000
 -0.021415  0.042830  0.064245     48.000000
 -0.032123  0.053538  0.074953     48.000000
 -0.042830  0.064245  0.085661     48.000000
 -0.053538  0.074953  0.096368     48.000000
  0.117783 -0.096368 -0.074953     48.000000
  0.000000  0.021415  0.064245     24.000000
 -0.010708  0.032123  0.074953     48.000000
 -0.021415  0.042830  0.085661     48.000000
 -0.032123  0.053538  0.096368     48.000000
 -0.042830  0.064245  0.107076     48.000000
  0.128491 -0.107076 -0.064245     48.000000
  0.117783 -0.096368 -0.053538     48.000000
  0.107076 -0.085661 -0.042830     48.000000
  0.096368 -0.074953 -0.032123     48.000000
  0.085661 -0.064245 -0.021415     48.000000
  0.074953 -0.053538 -0.010708     48.000000
  0.064245 -0.042830  0.000000     24.000000
  0.000000  0.021415  0.085661     24.000000
 -0.010708  0.032123  0.096368     48.000000
 -0.021415  0.042830  0.107076     48.000000
 -0.032123  0.053538  0.117783     48.000000
  0.139198 -0.117783 -0.053538     48.000000
  0.128491 -0.107076 -0.042830     48.000000
  0.117783 -0.096368 -0.032123     48.000000
  0.107076 -0.085661 -0.021415     48.000000
  0.096368 -0.074953 -0.010708     48.000000
  0.085661 -0.064245  0.000000     24.000000
  0.000000  0.021415  0.107076     24.000000
 -0.010708  0.032123  0.117783     48.000000
 -0.021415  0.042830  0.128491     48.000000
  0.149906 -0.128491 -0.042830     48.000000
  0.139198 -0.117783 -0.032123     48.000000
  0.128491 -0.107076 -0.021415     48.000000
  0.117783 -0.096368 -0.010708     48.000000
  0.107076 -0.085661  0.000000     24.000000
 -0.000000  0.021415  0.128491     24.000000
 -0.010708  0.032123  0.139198     48.000000
  0.160613 -0.139198 -0.032123     48.000000
  0.149906 -0.128491 -0.021415     48.000000
  0.139198 -0.117783 -0.010708     48.000000
  0.128491 -0.107076  0.000000     24.000000
  0.000000  0.021415  0.149906     24.000000
  0.171321 -0.149906 -0.021415     48.000000
  0.160613 -0.139198 -0.010708     48.000000
  0.149906 -0.128491  0.000000     24.000000
  0.182029 -0.160613 -0.010708     24.000000
  0.171321 -0.149906  0.000000     24.000000
  0.000000  0.042830  0.085661     24.000000
 -0.010708  0.053538  0.096368     48.000000
 -0.021415  0.064245  0.107076     48.000000
  0.149906 -0.107076 -0.064245     48.000000
  0.139198 -0.096368 -0.053538     48.000000
  0.000000  0.042830  0.107076     24.000000
 -0.010708  0.053538  0.117783     48.000000
  0.160613 -0.117783 -0.053538     48.000000
  0.149906 -0.107076 -0.042830     48.000000
  0.139198 -0.096368 -0.032123     48.000000
  0.128491 -0.085661 -0.021415     48.000000
  0.117783 -0.074953 -0.010708     48.000000
  0.107076 -0.064245  0.000000     24.000000
  0.000000  0.042830  0.128491     24.000000
  0.171321 -0.128491 -0.042830     48.000000
  0.160613 -0.117783 -0.032123     48.000000
  0.149906 -0.107076 -0.021415     48.000000
  0.139198 -0.096368 -0.010708     48.000000
  0.128491 -0.085661 -0.000000     24.000000
  0.182029 -0.139198 -0.032123     24.000000
  0.171321 -0.128491 -0.021415     48.000000
  0.160613 -0.117783 -0.010708     48.000000
  0.149906 -0.107076  0.000000     24.000000
  0.182029 -0.139198 -0.010708     24.000000
  0.171321 -0.128491  0.000000     24.000000
  0.182029 -0.117783 -0.053538     24.000000
  0.171321 -0.107076 -0.042830     48.000000
  0.160613 -0.096368 -0.032123     48.000000
  0.182029 -0.117783 -0.032123     24.000000
  0.171321 -0.107076 -0.021415     48.000000
  0.160613 -0.096368 -0.010708     48.000000
  0.149906 -0.085661  0.000000     24.000000
  0.182029 -0.117783 -0.010708     24.000000
  0.171321 -0.107076  0.000000     24.000000
  0.182029 -0.096368 -0.010708     24.000000
 


--------------------------------------------------------------------------------------------------------




 Dimension of arrays:
   k-points           NKPTS =      165   k-points in BZ     NKDIM =      165   number of bands    NBANDS=     16
   number of dos      NEDOS =    301   number of ions     NIONS =      2
   non local maximal  LDIM  =      4   non local SUM 2l+1 LMDIM =      8
   total plane-waves  NPLWV =  21952
   max r-space proj   IRMAX =      1   max aug-charges    IRDMAX=  17905
   dimension x,y,z NGX =    28 NGY =   28 NGZ =   28
   dimension x,y,z NGXF=    56 NGYF=   56 NGZF=   56
   support grid    NGXF=    56 NGYF=   56 NGZF=   56
   ions per type =               2
 NGX,Y,Z   is equivalent  to a cutoff of  11.98, 11.98, 11.98 a.u.
 NGXF,Y,Z  is equivalent  to a cutoff of  23.97, 23.97, 23.97 a.u.


 I would recommend the setting:
   dimension x,y,z NGX =    28 NGY =   28 NGZ =   28
 SYSTEM =  unknown system                          
 POSCAR =  bulk@JVASP-1002                         

 Startparameter for this run:
   NWRITE =      2    write-flag & timer
   PREC   = accura    normal or accurate (medium, high low for compatibility)
   ISTART =      0    job   : 0-new  1-cont  2-samecut
   ICHARG =      2    charge: 1-file 2-atom 10-const
   ISPIN  =      1    spin polarized calculation?
   LNONCOLLINEAR =      F non collinear calculations
   LSORBIT =      F    spin-orbit coupling
   INIWAV =      1    electr: 0-lowe 1-rand  2-diag
   LASPH  =      F    aspherical Exc in radial PAW
   METAGGA=      F    non-selfconsistent MetaGGA calc.

 Electronic Relaxation 1
   ENCUT  =  500.0 eV  36.75 Ry    6.06 a.u.   7.08  7.08  7.08*2*pi/ulx,y,z
   ENINI  =  500.0     initial cutoff
   ENAUG  =  322.1 eV  augmentation charge cutoff
   NELM   =    400;   NELMIN=  2; NELMDL= -5     # of ELM steps 
   EDIFF  = 0.1E-06   stopping-criterion for ELM
   LREAL  =      F    real-space projection
   NLSPLINE    = F    spline interpolate recip. space projectors
   LCOMPAT=      F    compatible to vasp.4.4
   GGA_COMPAT  = T    GGA compatible to vasp.4.4-vasp.4.6
   LMAXPAW     = -100 max onsite density
   LMAXMIX     =    2 max onsite mixed and CHGCAR
   VOSKOWN=      0    Vosko Wilk Nusair interpolation
   ROPT   =    0.00000
 Ionic relaxation
   EDIFFG = 0.1E-05   stopping-criterion for IOM
   NSW    =      1    number of steps for IOM
   NBLOCK =      1;   KBLOCK =      1    inner block; outer block 
   IBRION =      2    ionic relax: 0-MD 1-quasi-New 2-CG
   NFREE  =      1    steps in history (QN), initial steepest desc. (CG)
   ISIF   =      2    stress and relaxation
   IWAVPR =     11    prediction:  0-non 1-charg 2-wave 3-comb
   ISYM   =      2    0-nonsym 1-usesym 2-fastsym
   LCORR  =      T    Harris-Foulkes like correction to forces

   POTIM  = 0.5000    time-step for ionic-motion
   TEIN   =    0.0    initial temperature
   TEBEG  =    0.0;   TEEND  =   0.0 temperature during run
   SMASS  =  -3.00    Nose mass-parameter (am)
   estimated Nose-frequenzy (Omega)   =  0.10E-29 period in steps =****** mass=  -0.345E-27a.u.
   SCALEE = 1.0000    scale energy and forces
   NPACO  =    256;   APACO  = 16.0  distance and # of slots for P.C.
   PSTRESS=    0.0 pullay stress

  Mass of Ions in am
   POMASS =  28.09
  Ionic Valenz
   ZVAL   =   4.00
  Atomic Wigner-Seitz radii
   RWIGS  =  -1.00
  virtual crystal weights 
   VCA    =   1.00
   NELECT =       8.0000    total number of electrons
   NUPDOWN=      -1.0000    fix difference up-down

 DOS related values:
   EMIN   =  10.00;   EMAX   =-10.00  energy-range for DOS
   EFERMI =   0.00
   ISMEAR =     0;   SIGMA  =   0.20  broadening in eV -4-tet -1-fermi 0-gaus

 Electronic relaxation 2 (details)
   IALGO  =     38    algorithm
   LDIAG  =      T    sub-space diagonalisation (order eigenvalues)
   LSUBROT=      F    optimize rotation matrix (better conditioning)
   TURBO    =      0    0=normal 1=particle mesh
   IRESTART =      0    0=no restart 2=restart with 2 vectors
   NREBOOT  =      0    no. of reboots
   NMIN     =      0    reboot dimension
   EREF     =   0.00    reference energy to select bands
   IMIX   =      4    mixing-type and parameters
     AMIX     =   0.40;   BMIX     =  1.00
     AMIX_MAG =   1.60;   BMIX_MAG =  1.00
     AMIN     =   0.10
     WC   =   100.;   INIMIX=   1;  MIXPRE=   1;  MAXMIX= -45

 Intra band minimization:
   WEIMIN = 0.0010     energy-eigenvalue tresh-hold
   EBREAK =  0.16E-08  absolut break condition
   DEPER  =   0.30     relativ break condition  

   TIME   =   0.40     timestep for ELM

  volume/ion in A,a.u.               =      20.72       139.86
  Fermi-wavevector in a.u.,A,eV,Ry     =   0.946087  1.787845 12.178313  0.895081
  Thomas-Fermi vector in A             =   2.074051

 Write flags
   LWAVE  =      F    write WAVECAR
   LCHARG =      F    write CHGCAR
   LVTOT  =      F    write LOCPOT, total local potential
   LVHAR  =      F    write LOCPOT, Hartree potential only
   LELF   =      F    write electronic localiz. function (ELF)
   LORBIT =      0    0 simple, 1 ext, 2 COOP (PROOUT)


 Dipole corrections
   LMONO  =      F    monopole corrections only (constant potential shift)
   LDIPOL =      F    correct potential (dipole corrections)
   IDIPOL =      0    1-x, 2-y, 3-z, 4-all directions 
   EPSILON=  1.0000000 bulk dielectric constant

 Exchange correlation treatment:
   GGA     =    BO    GGA type
   LEXCH   =    42    internal setting for exchange type
   VOSKOWN=      0    Vosko Wilk Nusair interpolation
   LHFCALC =     F    Hartree Fock is set to
   LHFONE  =     F    Hartree Fock one center treatment
   AEXX    =    0.0000 exact exchange contribution

 vdW DFT:
   LUSE_VDW   =     T    switch on vdW DFT
   Zab_VDW    =-.8491    correlation parameter
   PARAM1     =0.1833
   PARAM2     =0.2200
   PARAM3     =0.0000

 Linear response parameters
   LEPSILON=     F    determine dielectric tensor
   LRPA    =     F    only Hartree local field effects (RPA)
   LNABLA  =     F    use nabla operator in PAW spheres
   LVEL    =     F    velocity operator in full k-point grid
   LINTERFAST=   F  fast interpolation
   KINTER  =     0    interpolate to denser k-point grid
   CSHIFT  =0.1000    complex shift for real part using Kramers Kronig
   OMEGAMAX=  -1.0    maximum frequency
   DEG_THRESHOLD= 0.2000000E-02 threshold for treating states as degnerate
   RTIME   =    0.100 relaxation time in fs

 Orbital magnetization related:
   ORBITALMAG=     F  switch on orbital magnetization
   LCHIMAG   =     F  perturbation theory with respect to B field
   DQ        =  0.001000  dq finite difference perturbation B field



--------------------------------------------------------------------------------------------------------


 conjugate gradient relaxation of ions
 charge density and potential will be updated during run
 non-spin polarized calculation
 Variant of blocked Davidson
 Davidson routine will perform the subspace rotation
 perform sub-space diagonalisation
    after iterative eigenvector-optimisation
 modified Broyden-mixing scheme, WC =      100.0
 initial mixing is a Kerker type mixing with AMIX =  0.4000 and BMIX =      1.0000
 Hartree-type preconditioning will be used
 using additional bands           12
 reciprocal scheme for non local part
 use partial core corrections
 calculate Harris-corrections to forces   (improved forces if not selfconsistent)
 use gradient corrections 
 use of overlap-Matrix (Vanderbilt PP)
 Gauss-broadening in eV      SIGMA  =   0.20


--------------------------------------------------------------------------------------------------------


  energy-cutoff  :      500.00
  volume of cell :       41.45
      direct lattice vectors                 reciprocal lattice vectors
     0.000000000  2.746821138  2.746821138    -0.182028598  0.182028598  0.182028598
     2.746821138  0.000000000  2.746821138     0.182028598 -0.182028598  0.182028598
     2.746821138  2.746821138  0.000000000     0.182028598  0.182028598 -0.182028598

  length of vectors
     3.884591706  3.884591706  3.884591706     0.315282780  0.315282780  0.315282780



 k-points in units of 2pi/SCALE and weight: Automatic kpoint scheme                 
   0.00000000  0.00000000  0.00000000       0.000
  -0.01070756  0.01070756  0.01070756       0.002
  -0.02141513  0.02141513  0.02141513       0.002
  -0.03212269  0.03212269  0.03212269       0.002
  -0.04283026  0.04283026  0.04283026       0.002
  -0.05353782  0.05353782  0.05353782       0.002
  -0.06424539  0.06424539  0.06424539       0.002
  -0.07495295  0.07495295  0.07495295       0.002
  -0.08566052  0.08566052  0.08566052       0.002
   0.00000000  0.00000000  0.02141513       0.001
  -0.01070756  0.01070756  0.03212269       0.005
  -0.02141513  0.02141513  0.04283026       0.005
  -0.03212269  0.03212269  0.05353782       0.005
  -0.04283026  0.04283026  0.06424539       0.005
  -0.05353782  0.05353782  0.07495295       0.005
  -0.06424539  0.06424539  0.08566052       0.005
  -0.07495295  0.07495295  0.09636808       0.005
   0.09636808 -0.09636808 -0.07495295       0.005
   0.08566052 -0.08566052 -0.06424539       0.005
   0.07495295 -0.07495295 -0.05353782       0.005
   0.06424539 -0.06424539 -0.04283026       0.005
   0.05353782 -0.05353782 -0.03212269       0.005
   0.04283026 -0.04283026 -0.02141513       0.005
   0.03212269 -0.03212269 -0.01070756       0.005
   0.02141513 -0.02141513  0.00000000       0.002
   0.00000000  0.00000000  0.04283026       0.001
  -0.01070756  0.01070756  0.05353782       0.005
  -0.02141513  0.02141513  0.06424539       0.005
  -0.03212269  0.03212269  0.07495295       0.005
  -0.04283026  0.04283026  0.08566052       0.005
  -0.05353782  0.05353782  0.09636808       0.005
  -0.06424539  0.06424539  0.10707565       0.005
   0.10707565 -0.10707565 -0.06424539       0.005
   0.09636808 -0.09636808 -0.05353782       0.005
   0.08566052 -0.08566052 -0.04283026       0.005
   0.07495295 -0.07495295 -0.03212269       0.005
   0.06424539 -0.06424539 -0.02141513       0.005
   0.05353782 -0.05353782 -0.01070756       0.005
   0.04283026 -0.04283026  0.00000000       0.002
   0.00000000  0.00000000  0.06424539       0.001
  -0.01070756  0.01070756  0.07495295       0.005
  -0.02141513  0.02141513  0.08566052       0.005
  -0.03212269  0.03212269  0.09636808       0.005
  -0.04283026  0.04283026  0.10707565       0.005
  -0.05353782  0.05353782  0.11778321       0.005
   0.11778321 -0.11778321 -0.05353782       0.005
   0.10707565 -0.10707565 -0.04283026       0.005
   0.09636808 -0.09636808 -0.03212269       0.005
   0.08566052 -0.08566052 -0.02141513       0.005
   0.07495295 -0.07495295 -0.01070756       0.005
   0.06424539 -0.06424539  0.00000000       0.002
   0.00000000  0.00000000  0.08566052       0.001
  -0.01070756  0.01070756  0.09636808       0.005
  -0.02141513  0.02141513  0.10707565       0.005
  -0.03212269  0.03212269  0.11778321       0.005
  -0.04283026  0.04283026  0.12849077       0.005
   0.12849077 -0.12849077 -0.04283026       0.005
   0.11778321 -0.11778321 -0.03212269       0.005
   0.10707565 -0.10707565 -0.02141513       0.005
   0.09636808 -0.09636808 -0.01070756       0.005
   0.08566052 -0.08566052  0.00000000       0.002
   0.00000000  0.00000000  0.10707565       0.001
  -0.01070756  0.01070756  0.11778321       0.005
  -0.02141513  0.02141513  0.12849077       0.005
  -0.03212269  0.03212269  0.13919834       0.005
   0.13919834 -0.13919834 -0.03212269       0.005
   0.12849077 -0.12849077 -0.02141513       0.005
   0.11778321 -0.11778321 -0.01070756       0.005
   0.10707565 -0.10707565  0.00000000       0.002
   0.00000000  0.00000000  0.12849077       0.001
  -0.01070756  0.01070756  0.13919834       0.005
  -0.02141513  0.02141513  0.14990590       0.005
   0.14990590 -0.14990590 -0.02141513       0.005
   0.13919834 -0.13919834 -0.01070756       0.005
   0.12849077 -0.12849077  0.00000000       0.002
   0.00000000  0.00000000  0.14990590       0.001
  -0.01070756  0.01070756  0.16061347       0.005
   0.16061347 -0.16061347 -0.01070756       0.005
   0.14990590 -0.14990590  0.00000000       0.002
   0.00000000  0.00000000  0.17132103       0.001
   0.17132103 -0.17132103  0.00000000       0.002
   0.00000000  0.02141513  0.04283026       0.005
  -0.01070756  0.03212269  0.05353782       0.010
  -0.02141513  0.04283026  0.06424539       0.010
  -0.03212269  0.05353782  0.07495295       0.010
  -0.04283026  0.06424539  0.08566052       0.010
  -0.05353782  0.07495295  0.09636808       0.010
   0.11778321 -0.09636808 -0.07495295       0.010
   0.00000000  0.02141513  0.06424539       0.005
  -0.01070756  0.03212269  0.07495295       0.010
  -0.02141513  0.04283026  0.08566052       0.010
  -0.03212269  0.05353782  0.09636808       0.010
  -0.04283026  0.06424539  0.10707565       0.010
   0.12849077 -0.10707565 -0.06424539       0.010
   0.11778321 -0.09636808 -0.05353782       0.010
   0.10707565 -0.08566052 -0.04283026       0.010
   0.09636808 -0.07495295 -0.03212269       0.010
   0.08566052 -0.06424539 -0.02141513       0.010
   0.07495295 -0.05353782 -0.01070756       0.010
   0.06424539 -0.04283026  0.00000000       0.005
   0.00000000  0.02141513  0.08566052       0.005
  -0.01070756  0.03212269  0.09636808       0.010
  -0.02141513  0.04283026  0.10707565       0.010
  -0.03212269  0.05353782  0.11778321       0.010
   0.13919834 -0.11778321 -0.05353782       0.010
   0.12849077 -0.10707565 -0.04283026       0.010
   0.11778321 -0.09636808 -0.03212269       0.010
   0.10707565 -0.08566052 -0.02141513       0.010
   0.09636808 -0.07495295 -0.01070756       0.010
   0.08566052 -0.06424539  0.00000000       0.005
   0.00000000  0.02141513  0.10707565       0.005
  -0.01070756  0.03212269  0.11778321       0.010
  -0.02141513  0.04283026  0.12849077       0.010
   0.14990590 -0.12849077 -0.04283026       0.010
   0.13919834 -0.11778321 -0.03212269       0.010
   0.12849077 -0.10707565 -0.02141513       0.010
   0.11778321 -0.09636808 -0.01070756       0.010
   0.10707565 -0.08566052  0.00000000       0.005
  -0.00000000  0.02141513  0.12849077       0.005
  -0.01070756  0.03212269  0.13919834       0.010
   0.16061347 -0.13919834 -0.03212269       0.010
   0.14990590 -0.12849077 -0.02141513       0.010
   0.13919834 -0.11778321 -0.01070756       0.010
   0.12849077 -0.10707565  0.00000000       0.005
   0.00000000  0.02141513  0.14990590       0.005
   0.17132103 -0.14990590 -0.02141513       0.010
   0.16061347 -0.13919834 -0.01070756       0.010
   0.14990590 -0.12849077  0.00000000       0.005
   0.18202860 -0.16061347 -0.01070756       0.005
   0.17132103 -0.14990590  0.00000000       0.005
   0.00000000  0.04283026  0.08566052       0.005
  -0.01070756  0.05353782  0.09636808       0.010
  -0.02141513  0.06424539  0.10707565       0.010
   0.14990590 -0.10707565 -0.06424539       0.010
   0.13919834 -0.09636808 -0.05353782       0.010
   0.00000000  0.04283026  0.10707565       0.005
  -0.01070756  0.05353782  0.11778321       0.010
   0.16061347 -0.11778321 -0.05353782       0.010
   0.14990590 -0.10707565 -0.04283026       0.010
   0.13919834 -0.09636808 -0.03212269       0.010
   0.12849077 -0.08566052 -0.02141513       0.010
   0.11778321 -0.07495295 -0.01070756       0.010
   0.10707565 -0.06424539  0.00000000       0.005
   0.00000000  0.04283026  0.12849077       0.005
   0.17132103 -0.12849077 -0.04283026       0.010
   0.16061347 -0.11778321 -0.03212269       0.010
   0.14990590 -0.10707565 -0.02141513       0.010
   0.13919834 -0.09636808 -0.01070756       0.010
   0.12849077 -0.08566052 -0.00000000       0.005
   0.18202860 -0.13919834 -0.03212269       0.005
   0.17132103 -0.12849077 -0.02141513       0.010
   0.16061347 -0.11778321 -0.01070756       0.010
   0.14990590 -0.10707565  0.00000000       0.005
   0.18202860 -0.13919834 -0.01070756       0.005
   0.17132103 -0.12849077  0.00000000       0.005
   0.18202860 -0.11778321 -0.05353782       0.005
   0.17132103 -0.10707565 -0.04283026       0.010
   0.16061347 -0.09636808 -0.03212269       0.010
   0.18202860 -0.11778321 -0.03212269       0.005
   0.17132103 -0.10707565 -0.02141513       0.010
   0.16061347 -0.09636808 -0.01070756       0.010
   0.14990590 -0.08566052  0.00000000       0.005
   0.18202860 -0.11778321 -0.01070756       0.005
   0.17132103 -0.10707565  0.00000000       0.005
   0.18202860 -0.09636808 -0.01070756       0.005

 k-points in reciprocal lattice and weights: Automatic kpoint scheme                 
   0.00000000  0.00000000  0.00000000       0.000
   0.05882353  0.00000000  0.00000000       0.002
   0.11764706  0.00000000  0.00000000       0.002
   0.17647059  0.00000000  0.00000000       0.002
   0.23529412  0.00000000  0.00000000       0.002
   0.29411765  0.00000000  0.00000000       0.002
   0.35294118  0.00000000  0.00000000       0.002
   0.41176471  0.00000000  0.00000000       0.002
   0.47058824  0.00000000  0.00000000       0.002
   0.05882353  0.05882353  0.00000000       0.001
   0.11764706  0.05882353  0.00000000       0.005
   0.17647059  0.05882353  0.00000000       0.005
   0.23529412  0.05882353  0.00000000       0.005
   0.29411765  0.05882353  0.00000000       0.005
   0.35294118  0.05882353  0.00000000       0.005
   0.41176471  0.05882353  0.00000000       0.005
   0.47058824  0.05882353  0.00000000       0.005
  -0.47058824  0.05882353  0.00000000       0.005
  -0.41176471  0.05882353  0.00000000       0.005
  -0.35294118  0.05882353  0.00000000       0.005
  -0.29411765  0.05882353  0.00000000       0.005
  -0.23529412  0.05882353  0.00000000       0.005
  -0.17647059  0.05882353  0.00000000       0.005
  -0.11764706  0.05882353  0.00000000       0.005
  -0.05882353  0.05882353  0.00000000       0.002
   0.11764706  0.11764706  0.00000000       0.001
   0.17647059  0.11764706  0.00000000       0.005
   0.23529412  0.11764706  0.00000000       0.005
   0.29411765  0.11764706  0.00000000       0.005
   0.35294118  0.11764706  0.00000000       0.005
   0.41176471  0.11764706  0.00000000       0.005
   0.47058824  0.11764706  0.00000000       0.005
  -0.47058824  0.11764706  0.00000000       0.005
  -0.41176471  0.11764706  0.00000000       0.005
  -0.35294118  0.11764706  0.00000000       0.005
  -0.29411765  0.11764706  0.00000000       0.005
  -0.23529412  0.11764706  0.00000000       0.005
  -0.17647059  0.11764706  0.00000000       0.005
  -0.11764706  0.11764706  0.00000000       0.002
   0.17647059  0.17647059  0.00000000       0.001
   0.23529412  0.17647059  0.00000000       0.005
   0.29411765  0.17647059  0.00000000       0.005
   0.35294118  0.17647059  0.00000000       0.005
   0.41176471  0.17647059  0.00000000       0.005
   0.47058824  0.17647059  0.00000000       0.005
  -0.47058824  0.17647059  0.00000000       0.005
  -0.41176471  0.17647059  0.00000000       0.005
  -0.35294118  0.17647059  0.00000000       0.005
  -0.29411765  0.17647059  0.00000000       0.005
  -0.23529412  0.17647059  0.00000000       0.005
  -0.17647059  0.17647059  0.00000000       0.002
   0.23529412  0.23529412  0.00000000       0.001
   0.29411765  0.23529412  0.00000000       0.005
   0.35294118  0.23529412  0.00000000       0.005
   0.41176471  0.23529412  0.00000000       0.005
   0.47058824  0.23529412  0.00000000       0.005
  -0.47058824  0.23529412  0.00000000       0.005
  -0.41176471  0.23529412  0.00000000       0.005
  -0.35294118  0.23529412  0.00000000       0.005
  -0.29411765  0.23529412  0.00000000       0.005
  -0.23529412  0.23529412  0.00000000       0.002
   0.29411765  0.29411765  0.00000000       0.001
   0.35294118  0.29411765  0.00000000       0.005
   0.41176471  0.29411765  0.00000000       0.005
   0.47058824  0.29411765  0.00000000       0.005
  -0.47058824  0.29411765  0.00000000       0.005
  -0.41176471  0.29411765  0.00000000       0.005
  -0.35294118  0.29411765  0.00000000       0.005
  -0.29411765  0.29411765  0.00000000       0.002
   0.35294118  0.35294118  0.00000000       0.001
   0.41176471  0.35294118  0.00000000       0.005
   0.47058824  0.35294118  0.00000000       0.005
  -0.47058824  0.35294118  0.00000000       0.005
  -0.41176471  0.35294118  0.00000000       0.005
  -0.35294118  0.35294118  0.00000000       0.002
   0.41176471  0.41176471  0.00000000       0.001
   0.47058824  0.41176471  0.00000000       0.005
  -0.47058824  0.41176471  0.00000000       0.005
  -0.41176471  0.41176471  0.00000000       0.002
   0.47058824  0.47058824  0.00000000       0.001
  -0.47058824  0.47058824  0.00000000       0.002
   0.17647059  0.11764706  0.05882353       0.005
   0.23529412  0.11764706  0.05882353       0.010
   0.29411765  0.11764706  0.05882353       0.010
   0.35294118  0.11764706  0.05882353       0.010
   0.41176471  0.11764706  0.05882353       0.010
   0.47058824  0.11764706  0.05882353       0.010
  -0.47058824  0.11764706  0.05882353       0.010
   0.23529412  0.17647059  0.05882353       0.005
   0.29411765  0.17647059  0.05882353       0.010
   0.35294118  0.17647059  0.05882353       0.010
   0.41176471  0.17647059  0.05882353       0.010
   0.47058824  0.17647059  0.05882353       0.010
  -0.47058824  0.17647059  0.05882353       0.010
  -0.41176471  0.17647059  0.05882353       0.010
  -0.35294118  0.17647059  0.05882353       0.010
  -0.29411765  0.17647059  0.05882353       0.010
  -0.23529412  0.17647059  0.05882353       0.010
  -0.17647059  0.17647059  0.05882353       0.010
  -0.11764706  0.17647059  0.05882353       0.005
   0.29411765  0.23529412  0.05882353       0.005
   0.35294118  0.23529412  0.05882353       0.010
   0.41176471  0.23529412  0.05882353       0.010
   0.47058824  0.23529412  0.05882353       0.010
  -0.47058824  0.23529412  0.05882353       0.010
  -0.41176471  0.23529412  0.05882353       0.010
  -0.35294118  0.23529412  0.05882353       0.010
  -0.29411765  0.23529412  0.05882353       0.010
  -0.23529412  0.23529412  0.05882353       0.010
  -0.17647059  0.23529412  0.05882353       0.005
   0.35294118  0.29411765  0.05882353       0.005
   0.41176471  0.29411765  0.05882353       0.010
   0.47058824  0.29411765  0.05882353       0.010
  -0.47058824  0.29411765  0.05882353       0.010
  -0.41176471  0.29411765  0.05882353       0.010
  -0.35294118  0.29411765  0.05882353       0.010
  -0.29411765  0.29411765  0.05882353       0.010
  -0.23529412  0.29411765  0.05882353       0.005
   0.41176471  0.35294118  0.05882353       0.005
   0.47058824  0.35294118  0.05882353       0.010
  -0.47058824  0.35294118  0.05882353       0.010
  -0.41176471  0.35294118  0.05882353       0.010
  -0.35294118  0.35294118  0.05882353       0.010
  -0.29411765  0.35294118  0.05882353       0.005
   0.47058824  0.41176471  0.05882353       0.005
  -0.47058824  0.41176471  0.05882353       0.010
  -0.41176471  0.41176471  0.05882353       0.010
  -0.35294118  0.41176471  0.05882353       0.005
  -0.47058824  0.47058824  0.05882353       0.005
  -0.41176471  0.47058824  0.05882353       0.005
   0.35294118  0.23529412  0.11764706       0.005
   0.41176471  0.23529412  0.11764706       0.010
   0.47058824  0.23529412  0.11764706       0.010
  -0.47058824  0.23529412  0.11764706       0.010
  -0.41176471  0.23529412  0.11764706       0.010
   0.41176471  0.29411765  0.11764706       0.005
   0.47058824  0.29411765  0.11764706       0.010
  -0.47058824  0.29411765  0.11764706       0.010
  -0.41176471  0.29411765  0.11764706       0.010
  -0.35294118  0.29411765  0.11764706       0.010
  -0.29411765  0.29411765  0.11764706       0.010
  -0.23529412  0.29411765  0.11764706       0.010
  -0.17647059  0.29411765  0.11764706       0.005
   0.47058824  0.35294118  0.11764706       0.005
  -0.47058824  0.35294118  0.11764706       0.010
  -0.41176471  0.35294118  0.11764706       0.010
  -0.35294118  0.35294118  0.11764706       0.010
  -0.29411765  0.35294118  0.11764706       0.010
  -0.23529412  0.35294118  0.11764706       0.005
  -0.47058824  0.41176471  0.11764706       0.005
  -0.41176471  0.41176471  0.11764706       0.010
  -0.35294118  0.41176471  0.11764706       0.010
  -0.29411765  0.41176471  0.11764706       0.005
  -0.41176471  0.47058824  0.11764706       0.005
  -0.35294118  0.47058824  0.11764706       0.005
  -0.47058824  0.35294118  0.17647059       0.005
  -0.41176471  0.35294118  0.17647059       0.010
  -0.35294118  0.35294118  0.17647059       0.010
  -0.41176471  0.41176471  0.17647059       0.005
  -0.35294118  0.41176471  0.17647059       0.010
  -0.29411765  0.41176471  0.17647059       0.010
  -0.23529412  0.41176471  0.17647059       0.005
  -0.35294118  0.47058824  0.17647059       0.005
  -0.29411765  0.47058824  0.17647059       0.005
  -0.29411765  0.47058824  0.23529412       0.005

 position of ions in fractional coordinates (direct lattice) 
   0.75000000  0.75000000  0.75000000
   0.50000000  0.50000000  0.50000000

 position of ions in cartesian coordinates  (Angst):
   4.12023171  4.12023171  4.12023171
   2.74682114  2.74682114  2.74682114



--------------------------------------------------------------------------------------------------------


 k-point  1 :   0.0000 0.0000 0.0000  plane waves:    1067
 k-point  2 :   0.0588 0.0000 0.0000  plane waves:    1046
 k-point  3 :   0.1176 0.0000 0.0000  plane waves:    1034
 k-point  4 :   0.1765 0.0000 0.0000  plane waves:    1043
 k-point  5 :   0.2353 0.0000 0.0000  plane waves:    1047
 k-point  6 :   0.2941 0.0000 0.0000  plane waves:    1056
 k-point  7 :   0.3529 0.0000 0.0000  plane waves:    1053
 k-point  8 :   0.4118 0.0000 0.0000  plane waves:    1044
 k-point  9 :   0.4706 0.0000 0.0000  plane waves:    1056
 k-point 10 :   0.0588 0.0588 0.0000  plane waves:    1042
 k-point 11 :   0.1176 0.0588 0.0000  plane waves:    1030
 k-point 12 :   0.1765 0.0588 0.0000  plane waves:    1034
 k-point 13 :   0.2353 0.0588 0.0000  plane waves:    1038
 k-point 14 :   0.2941 0.0588 0.0000  plane waves:    1049
 k-point 15 :   0.3529 0.0588 0.0000  plane waves:    1059
 k-point 16 :   0.4118 0.0588 0.0000  plane waves:    1044
 k-point 17 :   0.4706 0.0588 0.0000  plane waves:    1046
 k-point 18 :  -0.4706 0.0588 0.0000  plane waves:    1056
 k-point 19 :  -0.4118 0.0588 0.0000  plane waves:    1051
 k-point 20 :  -0.3529 0.0588 0.0000  plane waves:    1055
 k-point 21 :  -0.2941 0.0588 0.0000  plane waves:    1059
 k-point 22 :  -0.2353 0.0588 0.0000  plane waves:    1051
 k-point 23 :  -0.1765 0.0588 0.0000  plane waves:    1037
 k-point 24 :  -0.1176 0.0588 0.0000  plane waves:    1035
 k-point 25 :  -0.0588 0.0588 0.0000  plane waves:    1027
 k-point 26 :   0.1176 0.1176 0.0000  plane waves:    1038
 k-point 27 :   0.1765 0.1176 0.0000  plane waves:    1034
 k-point 28 :   0.2353 0.1176 0.0000  plane waves:    1042
 k-point 29 :   0.2941 0.1176 0.0000  plane waves:    1052
 k-point 30 :   0.3529 0.1176 0.0000  plane waves:    1052
 k-point 31 :   0.4118 0.1176 0.0000  plane waves:    1053
 k-point 32 :   0.4706 0.1176 0.0000  plane waves:    1049
 k-point 33 :  -0.4706 0.1176 0.0000  plane waves:    1054
 k-point 34 :  -0.4118 0.1176 0.0000  plane waves:    1052
 k-point 35 :  -0.3529 0.1176 0.0000  plane waves:    1051
 k-point 36 :  -0.2941 0.1176 0.0000  plane waves:    1050
 k-point 37 :  -0.2353 0.1176 0.0000  plane waves:    1052
 k-point 38 :  -0.1765 0.1176 0.0000  plane waves:    1045
 k-point 39 :  -0.1176 0.1176 0.0000  plane waves:    1037
 k-point 40 :   0.1765 0.1765 0.0000  plane waves:    1042
 k-point 41 :   0.2353 0.1765 0.0000  plane waves:    1044
 k-point 42 :   0.2941 0.1765 0.0000  plane waves:    1051
 k-point 43 :   0.3529 0.1765 0.0000  plane waves:    1050
 k-point 44 :   0.4118 0.1765 0.0000  plane waves:    1056
 k-point 45 :   0.4706 0.1765 0.0000  plane waves:    1053
 k-point 46 :  -0.4706 0.1765 0.0000  plane waves:    1061
 k-point 47 :  -0.4118 0.1765 0.0000  plane waves:    1063
 k-point 48 :  -0.3529 0.1765 0.0000  plane waves:    1055
 k-point 49 :  -0.2941 0.1765 0.0000  plane waves:    1057
 k-point 50 :  -0.2353 0.1765 0.0000  plane waves:    1058
 k-point 51 :  -0.1765 0.1765 0.0000  plane waves:    1061
 k-point 52 :   0.2353 0.2353 0.0000  plane waves:    1054
 k-point 53 :   0.2941 0.2353 0.0000  plane waves:    1037
 k-point 54 :   0.3529 0.2353 0.0000  plane waves:    1049
 k-point 55 :   0.4118 0.2353 0.0000  plane waves:    1052
 k-point 56 :   0.4706 0.2353 0.0000  plane waves:    1050
 k-point 57 :  -0.4706 0.2353 0.0000  plane waves:    1051
 k-point 58 :  -0.4118 0.2353 0.0000  plane waves:    1065
 k-point 59 :  -0.3529 0.2353 0.0000  plane waves:    1058
 k-point 60 :  -0.2941 0.2353 0.0000  plane waves:    1050
 k-point 61 :  -0.2353 0.2353 0.0000  plane waves:    1055
 k-point 62 :   0.2941 0.2941 0.0000  plane waves:    1030
 k-point 63 :   0.3529 0.2941 0.0000  plane waves:    1046
 k-point 64 :   0.4118 0.2941 0.0000  plane waves:    1050
 k-point 65 :   0.4706 0.2941 0.0000  plane waves:    1052
 k-point 66 :  -0.4706 0.2941 0.0000  plane waves:    1053
 k-point 67 :  -0.4118 0.2941 0.0000  plane waves:    1058
 k-point 68 :  -0.3529 0.2941 0.0000  plane waves:    1056
 k-point 69 :  -0.2941 0.2941 0.0000  plane waves:    1059
 k-point 70 :   0.3529 0.3529 0.0000  plane waves:    1034
 k-point 71 :   0.4118 0.3529 0.0000  plane waves:    1044
 k-point 72 :   0.4706 0.3529 0.0000  plane waves:    1050
 k-point 73 :  -0.4706 0.3529 0.0000  plane waves:    1051
 k-point 74 :  -0.4118 0.3529 0.0000  plane waves:    1058
 k-point 75 :  -0.3529 0.3529 0.0000  plane waves:    1059
 k-point 76 :   0.4118 0.4118 0.0000  plane waves:    1046
 k-point 77 :   0.4706 0.4118 0.0000  plane waves:    1059
 k-point 78 :  -0.4706 0.4118 0.0000  plane waves:    1046
 k-point 79 :  -0.4118 0.4118 0.0000  plane waves:    1037
 k-point 80 :   0.4706 0.4706 0.0000  plane waves:    1050
 k-point 81 :  -0.4706 0.4706 0.0000  plane waves:    1050
 k-point 82 :   0.1765 0.1176 0.0588  plane waves:    1035
 k-point 83 :   0.2353 0.1176 0.0588  plane waves:    1035
 k-point 84 :   0.2941 0.1176 0.0588  plane waves:    1043
 k-point 85 :   0.3529 0.1176 0.0588  plane waves:    1049
 k-point 86 :   0.4118 0.1176 0.0588  plane waves:    1052
 k-point 87 :   0.4706 0.1176 0.0588  plane waves:    1051
 k-point 88 :  -0.4706 0.1176 0.0588  plane waves:    1059
 k-point 89 :   0.2353 0.1765 0.0588  plane waves:    1033
 k-point 90 :   0.2941 0.1765 0.0588  plane waves:    1046
 k-point 91 :   0.3529 0.1765 0.0588  plane waves:    1052
 k-point 92 :   0.4118 0.1765 0.0588  plane waves:    1056
 k-point 93 :   0.4706 0.1765 0.0588  plane waves:    1055
 k-point 94 :  -0.4706 0.1765 0.0588  plane waves:    1054
 k-point 95 :  -0.4118 0.1765 0.0588  plane waves:    1055
 k-point 96 :  -0.3529 0.1765 0.0588  plane waves:    1053
 k-point 97 :  -0.2941 0.1765 0.0588  plane waves:    1054
 k-point 98 :  -0.2353 0.1765 0.0588  plane waves:    1053
 k-point 99 :  -0.1765 0.1765 0.0588  plane waves:    1049
 k-point ** :  -0.1176 0.1765 0.0588  plane waves:    1044
 k-point ** :   0.2941 0.2353 0.0588  plane waves:    1046
 k-point ** :   0.3529 0.2353 0.0588  plane waves:    1048
 k-point ** :   0.4118 0.2353 0.0588  plane waves:    1051
 k-point ** :   0.4706 0.2353 0.0588  plane waves:    1052
 k-point ** :  -0.4706 0.2353 0.0588  plane waves:    1056
 k-point ** :  -0.4118 0.2353 0.0588  plane waves:    1055
 k-point ** :  -0.3529 0.2353 0.0588  plane waves:    1056
 k-point ** :  -0.2941 0.2353 0.0588  plane waves:    1049
 k-point ** :  -0.2353 0.2353 0.0588  plane waves:    1053
 k-point ** :  -0.1765 0.2353 0.0588  plane waves:    1050
 k-point ** :   0.3529 0.2941 0.0588  plane waves:    1046
 k-point ** :   0.4118 0.2941 0.0588  plane waves:    1050
 k-point ** :   0.4706 0.2941 0.0588  plane waves:    1053
 k-point ** :  -0.4706 0.2941 0.0588  plane waves:    1059
 k-point ** :  -0.4118 0.2941 0.0588  plane waves:    1056
 k-point ** :  -0.3529 0.2941 0.0588  plane waves:    1058
 k-point ** :  -0.2941 0.2941 0.0588  plane waves:    1059
 k-point ** :  -0.2353 0.2941 0.0588  plane waves:    1053
 k-point ** :   0.4118 0.3529 0.0588  plane waves:    1050
 k-point ** :   0.4706 0.3529 0.0588  plane waves:    1051
 k-point ** :  -0.4706 0.3529 0.0588  plane waves:    1057
 k-point ** :  -0.4118 0.3529 0.0588  plane waves:    1059
 k-point ** :  -0.3529 0.3529 0.0588  plane waves:    1054
 k-point ** :  -0.2941 0.3529 0.0588  plane waves:    1051
 k-point ** :   0.4706 0.4118 0.0588  plane waves:    1059
 k-point ** :  -0.4706 0.4118 0.0588  plane waves:    1055
 k-point ** :  -0.4118 0.4118 0.0588  plane waves:    1056
 k-point ** :  -0.3529 0.4118 0.0588  plane waves:    1053
 k-point ** :  -0.4706 0.4706 0.0588  plane waves:    1052
 k-point ** :  -0.4118 0.4706 0.0588  plane waves:    1055
 k-point ** :   0.3529 0.2353 0.1176  plane waves:    1050
 k-point ** :   0.4118 0.2353 0.1176  plane waves:    1050
 k-point ** :   0.4706 0.2353 0.1176  plane waves:    1055
 k-point ** :  -0.4706 0.2353 0.1176  plane waves:    1054
 k-point ** :  -0.4118 0.2353 0.1176  plane waves:    1059
 k-point ** :   0.4118 0.2941 0.1176  plane waves:    1046
 k-point ** :   0.4706 0.2941 0.1176  plane waves:    1048
 k-point ** :  -0.4706 0.2941 0.1176  plane waves:    1054
 k-point ** :  -0.4118 0.2941 0.1176  plane waves:    1060
 k-point ** :  -0.3529 0.2941 0.1176  plane waves:    1060
 k-point ** :  -0.2941 0.2941 0.1176  plane waves:    1059
 k-point ** :  -0.2353 0.2941 0.1176  plane waves:    1053
 k-point ** :  -0.1765 0.2941 0.1176  plane waves:    1049
 k-point ** :   0.4706 0.3529 0.1176  plane waves:    1054
 k-point ** :  -0.4706 0.3529 0.1176  plane waves:    1054
 k-point ** :  -0.4118 0.3529 0.1176  plane waves:    1053
 k-point ** :  -0.3529 0.3529 0.1176  plane waves:    1057
 k-point ** :  -0.2941 0.3529 0.1176  plane waves:    1063
 k-point ** :  -0.2353 0.3529 0.1176  plane waves:    1058
 k-point ** :  -0.4706 0.4118 0.1176  plane waves:    1055
 k-point ** :  -0.4118 0.4118 0.1176  plane waves:    1060
 k-point ** :  -0.3529 0.4118 0.1176  plane waves:    1057
 k-point ** :  -0.2941 0.4118 0.1176  plane waves:    1054
 k-point ** :  -0.4118 0.4706 0.1176  plane waves:    1052
 k-point ** :  -0.3529 0.4706 0.1176  plane waves:    1057
 k-point ** :  -0.4706 0.3529 0.1765  plane waves:    1053
 k-point ** :  -0.4118 0.3529 0.1765  plane waves:    1051
 k-point ** :  -0.3529 0.3529 0.1765  plane waves:    1059
 k-point ** :  -0.4118 0.4118 0.1765  plane waves:    1053
 k-point ** :  -0.3529 0.4118 0.1765  plane waves:    1059
 k-point ** :  -0.2941 0.4118 0.1765  plane waves:    1056
 k-point ** :  -0.2353 0.4118 0.1765  plane waves:    1056
 k-point ** :  -0.3529 0.4706 0.1765  plane waves:    1059
 k-point ** :  -0.2941 0.4706 0.1765  plane waves:    1058
 k-point ** :  -0.2941 0.4706 0.2353  plane waves:    1055

 maximum and minimum number of plane-waves per node :      1067     1027

 maximum number of plane-waves:      1067
 maximum index in each direction: 
   IXMAX=    7   IYMAX=    7   IZMAX=    7
   IXMIN=   -7   IYMIN=   -7   IZMIN=   -7

 WARNING: aliasing errors must be expected set NGX to  30 to avoid them
 WARNING: aliasing errors must be expected set NGY to  30 to avoid them
 WARNING: aliasing errors must be expected set NGZ to  30 to avoid them
 aliasing errors are usually negligible using standard VASP settings
 and one can safely disregard these warnings

 serial   3D FFT for wavefunctions
 parallel 3D FFT for charge:
    minimum data exchange during FFTs selected (reduces bandwidth)


 total amount of memory used by VASP on root node    46256. kBytes
========================================================================

   base      :      30000. kBytes
   nonl-proj :      11354. kBytes
   fftplans  :        517. kBytes
   grid      :       1507. kBytes
   one-center:          6. kBytes
   wavefun   :       2872. kBytes

     INWAV:  cpu time    0.0000: real time    0.0000
 Broyden mixing: mesh for mixing (old mesh)
   NGX = 15   NGY = 15   NGZ = 15
  (NGX  = 56   NGY  = 56   NGZ  = 56)
  gives a total of   3375 points

 initial charge density was supplied:
 charge density of overlapping atoms calculated
 number of electron       8.0000000 magnetization 
 keeping initial charge density in first step


--------------------------------------------------------------------------------------------------------


 Maximum index for augmentation-charges         1417 (set IRDMAX)


--------------------------------------------------------------------------------------------------------


 First call to EWALD:  gamma=   0.512
 Maximum number of real-space cells 3x 3x 3
 Maximum number of reciprocal cells 3x 3x 3

 FEWALD executed in parallel
    FEWALD:  cpu time    0.0000: real time    0.0008


----------------------------------------- Iteration    1(   1)  ---------------------------------------


vdW kernel read from vdw_kernel.bindat
  0.0000  0.2424  0.5071  0.7962  1.1119  1.4567  1.8333  2.2446  2.6937  3.1842
  3.7199  4.3049  4.9438  5.6415  6.4036  7.2358  8.1446  9.1372 10.2212 11.4050
 12.6979 14.1099 15.6519 17.3360 19.1751 21.1837 23.3773 25.7729 28.3892 31.2465
 34.3669 37.7748 41.4965 45.5611 50.0000

    POTLOK:  cpu time    2.0880: real time    2.0890
    SETDIJ:  cpu time    0.0040: real time    0.0028
     EDDAV:  cpu time    1.9520: real time    1.9513
       DOS:  cpu time    0.0000: real time    0.0014
    --------------------------------------------
      LOOP:  cpu time    4.0440: real time    4.0455

 eigenvalue-minimisations  :  5296
 total energy-change (2. order) : 0.2917033E+01  (-0.3469253E+03)
 number of electron       8.0000000 magnetization 
 augmentation part        8.0000000 magnetization 

 Free energy of the ion-electron system (eV)
  ---------------------------------------------------
  alpha Z        PSCENC =         3.24857844
  Ewald energy   TEWEN  =      -225.91568183
  -Hartree energ DENC   =       -11.53197166
  -exchange      EXHF   =         0.00000000
  -V(xc)+E(xc)   XCENC  =       -20.29573795
  PAW double counting   =       189.40224250     -152.61488262
  entropy T*S    EENTRO =        -0.00477338
  eigenvalues    EBANDS =        12.03552167
  atomic energy  EATOM  =       208.59373829
  Solvation  Ediel_sol  =         0.00000000
  ---------------------------------------------------
  free energy    TOTEN  =         2.91703345 eV

  energy without entropy =        2.92180684  energy(sigma->0) =        2.91942014


--------------------------------------------------------------------------------------------------------




----------------------------------------- Iteration    1(   2)  ---------------------------------------


     EDDAV:  cpu time    3.3480: real time    3.3454
       DOS:  cpu time    0.0000: real time    0.0013
    --------------------------------------------
      LOOP:  cpu time    3.3480: real time    3.6256

 eigenvalue-minimisations  :  7712
 total energy-change (2. order) :-0.1124794E+02  (-0.1117110E+02)
 number of electron       8.0000000 magnetization 
 augmentation part        8.0000000 magnetization 

 Free energy of the ion-electron system (eV)
  ---------------------------------------------------
  alpha Z        PSCENC =         3.24857844
  Ewald energy   TEWEN  =      -225.91568183
  -Hartree energ DENC   =       -11.53197166
  -exchange      EXHF   =         0.00000000
  -V(xc)+E(xc)   XCENC  =       -20.29573795
  PAW double counting   =       189.40224250     -152.61488262
  entropy T*S    EENTRO =        -0.00000120
  eigenvalues    EBANDS =         0.78281128
  atomic energy  EATOM  =       208.59373829
  Solvation  Ediel_sol  =         0.00000000
  ---------------------------------------------------
  free energy    TOTEN  =        -8.33090476 eV

  energy without entropy =       -8.33090356  energy(sigma->0) =       -8.33090416


--------------------------------------------------------------------------------------------------------




----------------------------------------- Iteration    1(   3)  ---------------------------------------


     EDDAV:  cpu time    2.1800: real time    2.1777
       DOS:  cpu time    0.0000: real time    0.0012
    --------------------------------------------
      LOOP:  cpu time    2.1800: real time    2.2704

 eigenvalue-minimisations  :  5840
 total energy-change (2. order) :-0.7807940E-01  (-0.7807939E-01)
 number of electron       8.0000000 magnetization 
 augmentation part        8.0000000 magnetization 

 Free energy of the ion-electron system (eV)
  ---------------------------------------------------
  alpha Z        PSCENC =         3.24857844
  Ewald energy   TEWEN  =      -225.91568183
  -Hartree energ DENC   =       -11.53197166
  -exchange      EXHF   =         0.00000000
  -V(xc)+E(xc)   XCENC  =       -20.29573795
  PAW double counting   =       189.40224250     -152.61488262
  entropy T*S    EENTRO =        -0.00000104
  eigenvalues    EBANDS =         0.70473172
  atomic energy  EATOM  =       208.59373829
  Solvation  Ediel_sol  =         0.00000000
  ---------------------------------------------------
  free energy    TOTEN  =        -8.40898416 eV

  energy without entropy =       -8.40898312  energy(sigma->0) =       -8.40898364


--------------------------------------------------------------------------------------------------------




----------------------------------------- Iteration    1(   4)  ---------------------------------------


     EDDAV:  cpu time    4.5280: real time    4.5234
       DOS:  cpu time    0.0000: real time    0.0012
    --------------------------------------------
      LOOP:  cpu time    4.5280: real time    4.5617

 eigenvalue-minimisations  : 10016
 total energy-change (2. order) :-0.2283340E-03  (-0.2283343E-03)
 number of electron       8.0000000 magnetization 
 augmentation part        8.0000000 magnetization 

 Free energy of the ion-electron system (eV)
  ---------------------------------------------------
  alpha Z        PSCENC =         3.24857844
  Ewald energy   TEWEN  =      -225.91568183
  -Hartree energ DENC   =       -11.53197166
  -exchange      EXHF   =         0.00000000
  -V(xc)+E(xc)   XCENC  =       -20.29573795
  PAW double counting   =       189.40224250     -152.61488262
  entropy T*S    EENTRO =        -0.00000103
  eigenvalues    EBANDS =         0.70450338
  atomic energy  EATOM  =       208.59373829
  Solvation  Ediel_sol  =         0.00000000
  ---------------------------------------------------
  free energy    TOTEN  =        -8.40921249 eV

  energy without entropy =       -8.40921146  energy(sigma->0) =       -8.40921197


--------------------------------------------------------------------------------------------------------




----------------------------------------- Iteration    1(   5)  ---------------------------------------


     EDDAV:  cpu time    2.2040: real time    2.2044
       DOS:  cpu time    0.0040: real time    0.0013
    CHARGE:  cpu time    0.1320: real time    0.1346
    MIXING:  cpu time    0.0000: real time    0.0004
    --------------------------------------------
      LOOP:  cpu time    2.3400: real time    2.3853

 eigenvalue-minimisations  :  5776
 total energy-change (2. order) :-0.1104249E-07  (-0.1150398E-07)
 number of electron       7.9999999 magnetization 
 augmentation part       -0.4824994 magnetization 

 Broyden mixing:
  rms(total) = 0.36706E+00    rms(broyden)= 0.36706E+00
  rms(prec ) = 0.88301E+00
  weight for this iteration     100.00

 Free energy of the ion-electron system (eV)
  ---------------------------------------------------
  alpha Z        PSCENC =         3.24857844
  Ewald energy   TEWEN  =      -225.91568183
  -Hartree energ DENC   =       -11.53197166
  -exchange      EXHF   =         0.00000000
  -V(xc)+E(xc)   XCENC  =       -20.29573795
  PAW double counting   =       189.40224250     -152.61488262
  entropy T*S    EENTRO =        -0.00000103
  eigenvalues    EBANDS =         0.70450337
  atomic energy  EATOM  =       208.59373829
  Solvation  Ediel_sol  =         0.00000000
  ---------------------------------------------------
  free energy    TOTEN  =        -8.40921250 eV

  energy without entropy =       -8.40921147  energy(sigma->0) =       -8.40921198


--------------------------------------------------------------------------------------------------------




----------------------------------------- Iteration    1(   6)  ---------------------------------------


    POTLOK:  cpu time    1.6160: real time    1.6121
    SETDIJ:  cpu time    0.0000: real time    0.0025
     EDDAV:  cpu time    3.7120: real time    3.7113
       DOS:  cpu time    0.0040: real time    0.0013
    CHARGE:  cpu time    0.1360: real time    0.1358
    MIXING:  cpu time    0.0000: real time    0.0004
    --------------------------------------------
      LOOP:  cpu time    5.4680: real time    5.9152

 eigenvalue-minimisations  :  7888
 total energy-change (2. order) : 0.4945542E-01  (-0.8473246E-02)
 number of electron       7.9999999 magnetization 
 augmentation part       -0.4758204 magnetization 

 Broyden mixing:
  rms(total) = 0.22445E+00    rms(broyden)= 0.22445E+00
  rms(prec ) = 0.53317E+00
  weight for this iteration     100.00

 eigenvalues of (default mixing * dielectric matrix)
  average eigenvalue GAMMA=   2.5568
  2.5568

 Free energy of the ion-electron system (eV)
  ---------------------------------------------------
  alpha Z        PSCENC =         3.24857844
  Ewald energy   TEWEN  =      -225.91568183
  -Hartree energ DENC   =       -13.05557438
  -exchange      EXHF   =         0.00000000
  -V(xc)+E(xc)   XCENC  =       -20.06113386
  PAW double counting   =       304.67701346     -268.01753489
  entropy T*S    EENTRO =        -0.00000445
  eigenvalues    EBANDS =         2.17084215
  atomic energy  EATOM  =       208.59373829
  Solvation  Ediel_sol  =         0.00000000
  ---------------------------------------------------
  free energy    TOTEN  =        -8.35975709 eV

  energy without entropy =       -8.35975263  energy(sigma->0) =       -8.35975486


--------------------------------------------------------------------------------------------------------




----------------------------------------- Iteration    1(   7)  ---------------------------------------


    POTLOK:  cpu time    1.6000: real time    1.5991
    SETDIJ:  cpu time    0.0000: real time    0.0025
     EDDAV:  cpu time    3.4120: real time    3.4086
       DOS:  cpu time    0.0000: real time    0.0012
    CHARGE:  cpu time    0.1040: real time    0.1043
    MIXING:  cpu time    0.0000: real time    0.0005
    --------------------------------------------
      LOOP:  cpu time    5.1160: real time    5.1610

 eigenvalue-minimisations  :  8256
 total energy-change (2. order) : 0.5820720E-02  (-0.1936154E-01)
 number of electron       7.9999999 magnetization 
 augmentation part       -0.4668904 magnetization 

 Broyden mixing:
  rms(total) = 0.18552E-01    rms(broyden)= 0.18552E-01
  rms(prec ) = 0.47433E-01
  weight for this iteration     100.00

 eigenvalues of (default mixing * dielectric matrix)
  average eigenvalue GAMMA=   2.3194
  2.3194  2.3194

 Free energy of the ion-electron system (eV)
  ---------------------------------------------------
  alpha Z        PSCENC =         3.24857844
  Ewald energy   TEWEN  =      -225.91568183
  -Hartree energ DENC   =       -15.63067713
  -exchange      EXHF   =         0.00000000
  -V(xc)+E(xc)   XCENC  =       -19.64197338
  PAW double counting   =       542.06710064     -505.57251761
  entropy T*S    EENTRO =        -0.00003244
  eigenvalues    EBANDS =         4.49752866
  atomic energy  EATOM  =       208.59373829
  Solvation  Ediel_sol  =         0.00000000
  ---------------------------------------------------
  free energy    TOTEN  =        -8.35393637 eV

  energy without entropy =       -8.35390392  energy(sigma->0) =       -8.35392015


--------------------------------------------------------------------------------------------------------




----------------------------------------- Iteration    1(   8)  ---------------------------------------


    POTLOK:  cpu time    1.6440: real time    1.6430
    SETDIJ:  cpu time    0.0040: real time    0.0026
     EDDAV:  cpu time    2.4840: real time    2.4823
       DOS:  cpu time    0.0000: real time    0.0012
    CHARGE:  cpu time    0.1320: real time    0.1322
    MIXING:  cpu time    0.0000: real time    0.0004
    --------------------------------------------
      LOOP:  cpu time    4.2640: real time    4.3517

 eigenvalue-minimisations  :  6176
 total energy-change (2. order) : 0.1642112E-01  (-0.4941474E-03)
 number of electron       7.9999999 magnetization 
 augmentation part       -0.4681950 magnetization 

 Broyden mixing:
  rms(total) = 0.95319E-02    rms(broyden)= 0.95319E-02
  rms(prec ) = 0.23520E-01
  weight for this iteration     100.00

 eigenvalues of (default mixing * dielectric matrix)
  average eigenvalue GAMMA=   2.2057
  3.1149  1.7511  1.7511

 Free energy of the ion-electron system (eV)
  ---------------------------------------------------
  alpha Z        PSCENC =         3.24857844
  Ewald energy   TEWEN  =      -225.91568183
  -Hartree energ DENC   =       -15.40722404
  -exchange      EXHF   =         0.00000000
[...]
     10      15.6920      0.00000
     11      18.0842      0.00000
     12      18.7653      0.00000
     13      19.6596      0.00000
     14      20.0286      0.00000
     15      22.1363      0.00000
     16      22.7745      0.00000

 k-point   146 :      -0.4118    0.3529    0.1176
  band No.  band energies     occupation 
      1      -3.1191      2.00000
      2      -1.0709      2.00000
      3       1.7391      2.00000
      4       2.7679      2.00000
      5       7.8215      0.00000
      6       9.5640      0.00000
      7      10.5385      0.00000
      8      13.2507      0.00000
      9      13.6100      0.00000
     10      16.4634      0.00000
     11      17.2762      0.00000
     12      19.3023      0.00000
     13      20.1448      0.00000
     14      20.8653      0.00000
     15      22.6086      0.00000
     16      23.6313      0.00000

 k-point   147 :      -0.3529    0.3529    0.1176
  band No.  band energies     occupation 
      1      -2.9008      2.00000
      2      -1.3096      2.00000
      3       1.5197      2.00000
      4       2.8270      2.00000
      5       7.9713      0.00000
      6      10.1815      0.00000
      7      10.7882      0.00000
      8      12.3473      0.00000
      9      13.2564      0.00000
     10      15.8539      0.00000
     11      17.8713      0.00000
     12      19.2662      0.00000
     13      20.9987      0.00000
     14      21.5249      0.00000
     15      22.7049      0.00000
     16      23.2170      0.00000

 k-point   148 :      -0.2941    0.3529    0.1176
  band No.  band energies     occupation 
      1      -3.0714      2.00000
      2      -1.1179      2.00000
      3       1.4353      2.00000
      4       2.9866      2.00000
      5       8.1826      0.00000
      6      10.0590      0.00000
      7      11.2027      0.00000
      8      11.9705      0.00000
      9      13.1105      0.00000
     10      14.8678      0.00000
     11      18.8506      0.00000
     12      19.3436      0.00000
     13      20.6548      0.00000
     14      21.5782      0.00000
     15      22.0312      0.00000
     16      22.9336      0.00000

 k-point   149 :      -0.2353    0.3529    0.1176
  band No.  band energies     occupation 
      1      -3.4614      2.00000
      2      -0.6997      2.00000
      3       1.5391      2.00000
      4       3.2240      2.00000
      5       8.4524      0.00000
      6       9.7190      0.00000
      7      10.4661      0.00000
      8      12.6782      0.00000
      9      13.2407      0.00000
     10      14.1802      0.00000
     11      19.0910      0.00000
     12      19.6076      0.00000
     13      19.7131      0.00000
     14      20.6178      0.00000
     15      22.0272      0.00000
     16      23.6017      0.00000

 k-point   150 :      -0.4706    0.4118    0.1176
  band No.  band energies     occupation 
      1      -3.2700      2.00000
      2      -0.8842      2.00000
      3       2.2377      2.00000
      4       2.5984      2.00000
      5       7.3043      0.00000
      6       7.8028      0.00000
      7      11.8861      0.00000
      8      14.0106      0.00000
      9      15.0827      0.00000
     10      16.1815      0.00000
     11      17.8208      0.00000
     12      18.7954      0.00000
     13      19.3814      0.00000
     14      20.6272      0.00000
     15      21.7797      0.00000
     16      22.3543      0.00000

 k-point   151 :      -0.4118    0.4118    0.1176
  band No.  band energies     occupation 
      1      -2.8416      2.00000
      2      -1.3266      2.00000
      3       1.8886      2.00000
      4       2.4881      2.00000
      5       7.5634      0.00000
      6       8.4286      0.00000
      7      11.6501      0.00000
      8      13.6865      0.00000
      9      14.4405      0.00000
     10      16.5470      0.00000
     11      17.4142      0.00000
     12      19.3961      0.00000
     13      20.1411      0.00000
     14      20.8200      0.00000
     15      22.1773      0.00000
     16      22.9706      0.00000

 k-point   152 :      -0.3529    0.4118    0.1176
  band No.  band energies     occupation 
      1      -2.5467      2.00000
      2      -1.6070      2.00000
      3       1.5494      2.00000
      4       2.5573      2.00000
      5       7.7094      0.00000
      6       9.4261      0.00000
      7      11.4352      0.00000
      8      12.4773      0.00000
      9      14.3885      0.00000
     10      15.8742      0.00000
     11      18.0331      0.00000
     12      19.6480      0.00000
     13      20.7207      0.00000
     14      21.4854      0.00000
     15      22.4483      0.00000
     16      22.8758      0.00000

 k-point   153 :      -0.2941    0.4118    0.1176
  band No.  band energies     occupation 
      1      -2.6906      2.00000
      2      -1.4534      2.00000
      3       1.3706      2.00000
      4       2.7319      2.00000
      5       7.9134      0.00000
      6      10.4650      0.00000
      7      11.2164      0.00000
      8      11.4785      0.00000
      9      13.9933      0.00000
     10      15.1270      0.00000
     11      18.7795      0.00000
     12      20.0079      0.00000
     13      20.3951      0.00000
     14      21.5134      0.00000
     15      22.4026      0.00000
     16      23.5369      0.00000

 k-point   154 :      -0.4118    0.4706    0.1176
  band No.  band energies     occupation 
      1      -2.5161      2.00000
      2      -1.7119      2.00000
      3       2.2129      2.00000
      4       2.3298      2.00000
      5       7.3295      0.00000
      6       7.4921      0.00000
      7      12.8636      0.00000
      8      13.8913      0.00000
      9      15.2847      0.00000
     10      16.3650      0.00000
     11      17.6258      0.00000
     12      18.6082      0.00000
     13      19.9624      0.00000
     14      21.0380      0.00000
     15      21.9924      0.00000
     16      23.1985      0.00000

 k-point   155 :      -0.3529    0.4706    0.1176
  band No.  band energies     occupation 
      1      -2.2242      2.00000
      2      -1.9599      2.00000
      3       1.8366      2.00000
      4       2.3706      2.00000
      5       7.5203      0.00000
      6       8.3348      0.00000
      7      12.5729      0.00000
      8      12.7141      0.00000
      9      15.3483      0.00000
     10      15.9005      0.00000
     11      18.0321      0.00000
     12      18.6941      0.00000
     13      21.0555      0.00000
     14      21.5038      0.00000
     15      22.1471      0.00000
     16      22.4685      0.00000

 k-point   156 :      -0.4706    0.3529    0.1765
  band No.  band energies     occupation 
      1      -3.7392      2.00000
      2      -0.3532      2.00000
      3       1.9199      2.00000
      4       3.0837      2.00000
      5       8.4870      0.00000
      6       9.2245      0.00000
      7       9.7015      0.00000
      8      12.8016      0.00000
      9      14.6332      0.00000
     10      14.6693      0.00000
     11      18.7730      0.00000
     12      18.8406      0.00000
     13      19.4001      0.00000
     14      19.8802      0.00000
     15      21.9433      0.00000
     16      23.1131      0.00000

 k-point   157 :      -0.4118    0.3529    0.1765
  band No.  band energies     occupation 
      1      -3.3145      2.00000
      2      -0.8435      2.00000
      3       1.6877      2.00000
      4       2.8505      2.00000
      5       8.7971      0.00000
      6       9.3474      0.00000
      7       9.9467      0.00000
      8      13.1717      0.00000
      9      13.3573      0.00000
     10      15.2874      0.00000
     11      18.4236      0.00000
     12      19.2730      0.00000
     13      20.2486      0.00000
     14      20.4305      0.00000
     15      22.0102      0.00000
     16      23.8603      0.00000

 k-point   158 :      -0.3529    0.3529    0.1765
  band No.  band energies     occupation 
      1      -2.9855      2.00000
      2      -1.2177      2.00000
      3       1.5861      2.00000
      4       2.7205      2.00000
      5       8.9246      0.00000
      6       9.1717      0.00000
      7      10.9098      0.00000
      8      12.1315      0.00000
      9      13.2772      0.00000
     10      16.1705      0.00000
     11      17.5419      0.00000
     12      19.1508      0.00000
     13      20.9768      0.00000
     14      21.6955      0.00000
     15      22.3722      0.00000
     16      23.3043      0.00000

 k-point   159 :      -0.4118    0.4118    0.1765
  band No.  band energies     occupation 
      1      -3.1026      2.00000
      2      -1.0202      2.00000
      3       1.8135      2.00000
      4       2.5043      2.00000
      5       8.3888      0.00000
      6       8.8151      0.00000
      7      10.4910      0.00000
      8      13.5011      0.00000
      9      14.0474      0.00000
     10      15.8724      0.00000
     11      18.1595      0.00000
     12      19.5351      0.00000
     13      19.9799      0.00000
     14      20.5335      0.00000
     15      21.8591      0.00000
     16      23.4384      0.00000

 k-point   160 :      -0.3529    0.4118    0.1765
  band No.  band energies     occupation 
      1      -2.7127      2.00000
      2      -1.4060      2.00000
      3       1.6267      2.00000
      4       2.3377      2.00000
      5       8.6669      0.00000
      6       9.5613      0.00000
      7      10.3014      0.00000
      8      12.2399      0.00000
      9      14.3985      0.00000
     10      16.3623      0.00000
     11      17.6101      0.00000
     12      19.5368      0.00000
     13      20.4647      0.00000
     14      21.7342      0.00000
     15      22.2930      0.00000
     16      23.6206      0.00000

 k-point   161 :      -0.2941    0.4118    0.1765
  band No.  band energies     occupation 
      1      -2.6021      2.00000
      2      -1.5106      2.00000
      3       1.5008      2.00000
      4       2.3690      2.00000
      5       8.8401      0.00000
      6       9.9237      0.00000
      7      10.7491      0.00000
      8      11.1534      0.00000
      9      14.3907      0.00000
     10      16.1223      0.00000
     11      17.8289      0.00000
     12      19.6229      0.00000
     13      20.5078      0.00000
     14      22.1468      0.00000
     15      22.8401      0.00000
     16      23.6014      0.00000

 k-point   162 :      -0.2353    0.4118    0.1765
  band No.  band energies     occupation 
      1      -2.8993      2.00000
      2      -1.2192      2.00000
      3       1.5030      2.00000
      4       2.5561      2.00000
      5       9.0617      0.00000
      6       9.6248      0.00000
      7      10.1394      0.00000
      8      12.0691      0.00000
      9      14.0070      0.00000
     10      15.5043      0.00000
     11      18.4898      0.00000
     12      19.7612      0.00000
     13      20.0934      0.00000
     14      21.6465      0.00000
     15      21.8850      0.00000
     16      24.1584      0.00000

 k-point   163 :      -0.3529    0.4706    0.1765
  band No.  band energies     occupation 
      1      -2.4178      2.00000
      2      -1.7139      2.00000
      3       1.8651      2.00000
      4       2.0923      2.00000
      5       8.4033      0.00000
      6       8.5422      0.00000
      7      11.4032      0.00000
      8      12.4163      0.00000
      9      15.2621      0.00000
     10      16.2909      0.00000
     11      17.7638      0.00000
     12      18.7187      0.00000
     13      21.2052      0.00000
     14      21.8329      0.00000
     15      22.1932      0.00000
     16      23.1309      0.00000

 k-point   164 :      -0.2941    0.4706    0.1765
  band No.  band energies     occupation 
      1      -2.2542      2.00000
      2      -1.8456      2.00000
      3       1.6443      2.00000
      4       2.1187      2.00000
      5       8.6228      0.00000
      6       9.5104      0.00000
      7      11.1512      0.00000
      8      11.2560      0.00000
      9      15.3030      0.00000
     10      16.0534      0.00000
     11      17.9649      0.00000
     12      18.8057      0.00000
     13      21.3462      0.00000
     14      22.0696      0.00000
     15      22.9361      0.00000
     16      23.0692      0.00000

 k-point   165 :      -0.2941    0.4706    0.2353
  band No.  band energies     occupation 
      1      -2.3214      2.00000
      2      -1.7568      2.00000
      3       1.6559      2.00000
      4       2.0119      2.00000
      5       9.5843      0.00000
      6       9.6118      0.00000
      7      10.2027      0.00000
      8      11.0185      0.00000
      9      15.2768      0.00000
     10      16.1889      0.00000
     11      17.8829      0.00000
     12      18.8062      0.00000
     13      21.1987      0.00000
     14      22.0844      0.00000
     15      23.1795      0.00000
     16      23.4445      0.00000


--------------------------------------------------------------------------------------------------------


 soft charge-density along one line, spin component           1
         0         1         2         3         4         5         6         7         8         9
 total charge-density along one line

 pseudopotential strength for first ion, spin component:           1
 18.546  25.870  -0.000  -0.000  -0.000  -0.000  -0.000  -0.000
 25.870  36.092  -0.000  -0.000  -0.000  -0.000  -0.000  -0.000
 -0.000  -0.000   4.200  -0.000  -0.000   7.819  -0.000  -0.000
 -0.000  -0.000  -0.000   4.200  -0.000  -0.000   7.819  -0.000
 -0.000  -0.000  -0.000  -0.000   4.200  -0.000  -0.000   7.819
 -0.000  -0.000   7.819  -0.000  -0.000  14.567  -0.000  -0.000
 -0.000  -0.000  -0.000   7.819  -0.000  -0.000  14.567  -0.000
 -0.000  -0.000  -0.000  -0.000   7.819  -0.000  -0.000  14.567
 total augmentation occupancy for first ion, spin component:           1
  3.174  -0.925   0.000   0.000   0.000   0.000   0.000   0.000
 -0.925   0.476   0.000   0.000   0.000  -0.000  -0.000   0.000
 -0.000  -0.000   2.219   0.000   0.000  -0.395   0.000   0.000
  0.000   0.000   0.000   2.219   0.000   0.000  -0.395  -0.000
  0.000   0.000   0.000   0.000   2.219   0.000   0.000  -0.395
 -0.000  -0.000  -0.395   0.000   0.000   0.081   0.000   0.000
  0.000   0.000   0.000  -0.395  -0.000  -0.000   0.081  -0.000
  0.000   0.000   0.000  -0.000  -0.395  -0.000  -0.000   0.081


------------------------ aborting loop because EDIFF is reached ----------------------------------------


    CHARGE:  cpu time    0.1320: real time    0.1350
    FORLOC:  cpu time    0.0040: real time    0.0005
    FORNL :  cpu time    0.2280: real time    0.2281
    STRESS:  cpu time    2.2680: real time    2.2660
    FORCOR:  cpu time    1.6040: real time    1.6038
    FORHAR:  cpu time    0.0040: real time    0.0039
    MIXING:  cpu time    0.0000: real time    0.0006
    OFIELD:  cpu time    0.0000: real time    0.0000

  FORCE on cell =-STRESS in cart. coord.  units (eV):
  Direction    XX          YY          ZZ          XY          YZ          ZX
  --------------------------------------------------------------------------------------
  Alpha Z     3.24858     3.24858     3.24858
  Ewald     -75.30526   -75.30526   -75.30526     0.00000    -0.00000    -0.00000
  Hartree     5.17713     5.17713     5.17713     0.00000     0.00000     0.00000
  E(xc)     -25.30722   -25.30722   -25.30722    -0.00000    -0.00000    -0.00000
  Local     -29.74888   -29.74888   -29.74888     0.00001     0.00001     0.00001
  n-local    78.51335    80.08221    74.28756     2.18873    -1.30691     0.49913
  augment   -11.97760   -11.97760   -11.97760    -0.00001    -0.00001    -0.00001
  Kinetic    58.50001    55.92684    54.43045     3.56515    -0.72352     1.05390
  Fock        0.00000     0.00000     0.00000     0.00000     0.00000     0.00000
  -------------------------------------------------------------------------------------
  Total       0.00023     0.00023     0.00023    -0.00000     0.00000    -0.00000
  in kB       0.00875     0.00875     0.00875    -0.00000     0.00000    -0.00000
  external pressure =        0.01 kB  Pullay stress =        0.00 kB


 VOLUME and BASIS-vectors are now :
 -----------------------------------------------------------------------------
  energy-cutoff  :      500.00
  volume of cell :       41.45
      direct lattice vectors                 reciprocal lattice vectors
     0.000000000  2.746821138  2.746821138    -0.182028598  0.182028598  0.182028598
     2.746821138  0.000000000  2.746821138     0.182028598 -0.182028598  0.182028598
     2.746821138  2.746821138  0.000000000     0.182028598  0.182028598 -0.182028598

  length of vectors
     3.884591706  3.884591706  3.884591706     0.315282780  0.315282780  0.315282780


 FORCES acting on ions
    electron-ion (+dipol)            ewald-force                    non-local-force                 convergence-correction
 -----------------------------------------------------------------------------------------------
   0.983E-08 0.983E-08 0.107E-07   -.313E-14 -.268E-14 -.153E-14   -.694E-16 -.104E-15 -.104E-16   -.231E-12 -.230E-12 -.229E-12
   -.983E-08 -.983E-08 -.107E-07   0.307E-14 0.301E-14 0.222E-14   0.486E-16 0.111E-15 0.208E-16   0.229E-12 0.227E-12 0.231E-12
 -----------------------------------------------------------------------------------------------
   0.362E-13 0.750E-13 -.122E-12   -.615E-16 0.330E-15 0.690E-15   -.208E-16 0.694E-17 0.104E-16   -.172E-14 -.277E-14 0.143E-14


 POSITION                                       TOTAL-FORCE (eV/Angst)
 -----------------------------------------------------------------------------------
      4.12023      4.12023      4.12023         0.000000      0.000000      0.000000
      2.74682      2.74682      2.74682        -0.000000     -0.000000     -0.000000
 -----------------------------------------------------------------------------------
    total drift:                                0.000000      0.000000     -0.000000


--------------------------------------------------------------------------------------------------------



  FREE ENERGIE OF THE ION-ELECTRON SYSTEM (eV)
  ---------------------------------------------------
  free  energy   TOTEN  =        -8.33847015 eV

  energy  without entropy=       -8.33844597  energy(sigma->0) =       -8.33845806



--------------------------------------------------------------------------------------------------------


    POTLOK:  cpu time    1.6200: real time    1.6208


--------------------------------------------------------------------------------------------------------




--------------------------------------------------------------------------------------------------------


  
 reached required accuracy - stopping structural energy minimisation
     LOOP+:  cpu time   71.8600: real time   74.2677
    4ORBIT:  cpu time    0.0000: real time    0.0000

 total amount of memory used by VASP on root node    46256. kBytes
========================================================================

   base      :      30000. kBytes
   nonl-proj :      11354. kBytes
   fftplans  :        517. kBytes
   grid      :       1507. kBytes
   one-center:          6. kBytes
   wavefun   :       2872. kBytes

  
  
 General timing and accounting informations for this job:
 ========================================================
  
                  Total CPU time used (sec):       72.988
                            User time (sec):       71.936
                          System time (sec):        1.052
                         Elapsed time (sec):       76.746
  
                   Maximum memory used (kb):      130272.
                   Average memory used (kb):           0.
  
                          Minor page faults:       853436
                          Major page faults:            5
                 Voluntary context switches:          348
