<?xml version="1.0" encoding="ISO-8859-1"?>
<modeling>
 <generator>
  <i name="program" type="string">vasp </i>
  <i name="version" type="string">5.4.1  </i>
  <i name="subversion" type="string">24Jun15 (build Feb  9 2019 14:16:27) complex                          parallel </i>
  <i name="platform" type="string">IFC91_ompi </i>
  <i name="date" type="string">2020 09 26 </i>
  <i name="time" type="string">22:33:56 </i>
 </generator>
 <incar>
  <i type="string" name="PREC">accurate</i>
  <i type="int" name="NELM">   400</i>
  <i type="int" name="IBRION">     2</i>
  <i name="EDIFF">      0.00000010</i>
  <i type="int" name="NSW">     1</i>
  <i type="int" name="ISIF">     2</i>
  <i name="ENCUT">    500.00000000</i>
  <i type="int" name="ISMEAR">     0</i>
  <i type="logical" name="LWAVE"> F  </i>
  <i type="logical" name="LCHARG"> F  </i>
  <v type="int" name="KPOINT_BSE">    -1     0     0     0</v>
  <i type="int" name="NELM">   400</i>
  <i type="string" name="GGA">BO</i>
  <i name="PARAM1">      0.18333333</i>
  <i name="PARAM2">      0.22000000</i>
  <i type="logical" name="LUSE_VDW"> T  </i>
  <i name="AGGAC">      0.00000000</i>
 </incar>
 <kpoints>
  <generation param="Gamma">
   <v type="int" name="divisions">      17       17       17 </v>
   <v name="usershift">      0.00000000       0.00000000       0.00000000 </v>
   <v name="genvec1">      0.05882353       0.00000000       0.00000000 </v>
   <v name="genvec2">      0.00000000       0.05882353       0.00000000 </v>
   <v name="genvec3">      0.00000000       0.00000000       0.05882353 </v>
   <v name="shift">      0.00000000       0.00000000       0.00000000 </v>
  </generation>
  <varray name="kpointlist" >
   <v>       0.00000000       0.00000000       0.00000000 </v>
   <v>       0.05882353       0.00000000       0.00000000 </v>
   <v>       0.11764706       0.00000000       0.00000000 </v>
   <v>       0.17647059       0.00000000       0.00000000 </v>
   <v>       0.23529412       0.00000000       0.00000000 </v>
   <v>       0.29411765       0.00000000       0.00000000 </v>
   <v>       0.35294118       0.00000000       0.00000000 </v>
   <v>       0.41176471       0.00000000       0.00000000 </v>
   <v>       0.47058824       0.00000000       0.00000000 </v>
   <v>       0.05882353       0.05882353       0.00000000 </v>
   <v>       0.11764706       0.05882353       0.00000000 </v>
   <v>       0.17647059       0.05882353       0.00000000 </v>
   <v>       0.23529412       0.05882353       0.00000000 </v>
   <v>       0.29411765       0.05882353       0.00000000 </v>
   <v>       0.35294118       0.05882353       0.00000000 </v>
   <v>       0.41176471       0.05882353       0.00000000 </v>
   <v>       0.47058824       0.05882353       0.00000000 </v>
   <v>      -0.47058824       0.05882353       0.00000000 </v>
   <v>      -0.41176471       0.05882353       0.00000000 </v>
   <v>      -0.35294118       0.05882353       0.00000000 </v>
   <v>      -0.29411765       0.05882353       0.00000000 </v>
   <v>      -0.23529412       0.05882353       0.00000000 </v>
   <v>      -0.17647059       0.05882353       0.00000000 </v>
   <v>      -0.11764706       0.05882353       0.00000000 </v>
   <v>      -0.05882353       0.05882353       0.00000000 </v>
   <v>       0.11764706       0.11764706       0.00000000 </v>
   <v>       0.17647059       0.11764706       0.00000000 </v>
   <v>       0.23529412       0.11764706       0.00000000 </v>
   <v>       0.29411765       0.11764706       0.00000000 </v>
   <v>       0.35294118       0.11764706       0.00000000 </v>
   <v>       0.41176471       0.11764706       0.00000000 </v>
   <v>       0.47058824       0.11764706       0.00000000 </v>
   <v>      -0.47058824       0.11764706       0.00000000 </v>
   <v>      -0.41176471       0.11764706       0.00000000 </v>
   <v>      -0.35294118       0.11764706       0.00000000 </v>
   <v>      -0.29411765       0.11764706       0.00000000 </v>
   <v>      -0.23529412       0.11764706       0.00000000 </v>
   <v>      -0.17647059       0.11764706       0.00000000 </v>
   <v>      -0.11764706       0.11764706       0.00000000 </v>
   <v>       0.17647059       0.17647059       0.00000000 </v>
   <v>       0.23529412       0.17647059       0.00000000 </v>
   <v>       0.29411765       0.17647059       0.00000000 </v>
   <v>       0.35294118       0.17647059       0.00000000 </v>
   <v>       0.41176471       0.17647059       0.00000000 </v>
   <v>       0.47058824       0.17647059       0.00000000 </v>
   <v>      -0.47058824       0.17647059       0.00000000 </v>
   <v>      -0.41176471       0.17647059       0.00000000 </v>
   <v>      -0.35294118       0.17647059       0.00000000 </v>
   <v>      -0.29411765       0.17647059       0.00000000 </v>
   <v>      -0.23529412       0.17647059       0.00000000 </v>
   <v>      -0.17647059       0.17647059       0.00000000 </v>
   <v>       0.23529412       0.23529412       0.00000000 </v>
   <v>       0.29411765       0.23529412       0.00000000 </v>
   <v>       0.35294118       0.23529412       0.00000000 </v>
   <v>       0.41176471       0.23529412       0.00000000 </v>
   <v>       0.47058824       0.23529412       0.00000000 </v>
   <v>      -0.47058824       0.23529412       0.00000000 </v>
   <v>      -0.41176471       0.23529412       0.00000000 </v>
   <v>      -0.35294118       0.23529412       0.00000000 </v>
   <v>      -0.29411765       0.23529412       0.00000000 </v>
   <v>      -0.23529412       0.23529412       0.00000000 </v>
   <v>       0.29411765       0.29411765       0.00000000 </v>
   <v>       0.35294118       0.29411765       0.00000000 </v>
   <v>       0.41176471       0.29411765       0.00000000 </v>
   <v>       0.47058824       0.29411765       0.00000000 </v>
   <v>      -0.47058824       0.29411765       0.00000000 </v>
   <v>      -0.41176471       0.29411765       0.00000000 </v>
   <v>      -0.35294118       0.29411765       0.00000000 </v>
   <v>      -0.29411765       0.29411765       0.00000000 </v>
   <v>       0.35294118       0.35294118       0.00000000 </v>
   <v>       0.41176471       0.35294118       0.00000000 </v>
   <v>       0.47058824       0.35294118       0.00000000 </v>
   <v>      -0.47058824       0.35294118       0.00000000 </v>
   <v>      -0.41176471       0.35294118       0.00000000 </v>
   <v>      -0.35294118       0.35294118       0.00000000 </v>
   <v>       0.41176471       0.41176471       0.00000000 </v>
   <v>       0.47058824       0.41176471       0.00000000 </v>
   <v>      -0.47058824       0.41176471       0.00000000 </v>
   <v>      -0.41176471       0.41176471       0.00000000 </v>
   <v>       0.47058824       0.47058824       0.00000000 </v>
   <v>      -0.47058824       0.47058824       0.00000000 </v>
   <v>       0.17647059       0.11764706       0.05882353 </v>
   <v>       0.23529412       0.11764706       0.05882353 </v>
   <v>       0.29411765       0.11764706       0.05882353 </v>
   <v>       0.35294118       0.11764706       0.05882353 </v>
   <v>       0.41176471       0.11764706       0.05882353 </v>
   <v>       0.47058824       0.11764706       0.05882353 </v>
   <v>      -0.47058824       0.11764706       0.05882353 </v>
   <v>       0.23529412       0.17647059       0.05882353 </v>
   <v>       0.29411765       0.17647059       0.05882353 </v>
   <v>       0.35294118       0.17647059       0.05882353 </v>
   <v>       0.41176471       0.17647059       0.05882353 </v>
   <v>       0.47058824       0.17647059       0.05882353 </v>
   <v>      -0.47058824       0.17647059       0.05882353 </v>
   <v>      -0.41176471       0.17647059       0.05882353 </v>
   <v>      -0.35294118       0.17647059       0.05882353 </v>
   <v>      -0.29411765       0.17647059       0.05882353 </v>
   <v>      -0.23529412       0.17647059       0.05882353 </v>
   <v>      -0.17647059       0.17647059       0.05882353 </v>
   <v>      -0.11764706       0.17647059       0.05882353 </v>
   <v>       0.29411765       0.23529412       0.05882353 </v>
   <v>       0.35294118       0.23529412       0.05882353 </v>
   <v>       0.41176471       0.23529412       0.05882353 </v>
   <v>       0.47058824       0.23529412       0.05882353 </v>
   <v>      -0.47058824       0.23529412       0.05882353 </v>
   <v>      -0.41176471       0.23529412       0.05882353 </v>
   <v>      -0.35294118       0.23529412       0.05882353 </v>
   <v>      -0.29411765       0.23529412       0.05882353 </v>
   <v>      -0.23529412       0.23529412       0.05882353 </v>
   <v>      -0.17647059       0.23529412       0.05882353 </v>
   <v>       0.35294118       0.29411765       0.05882353 </v>
   <v>       0.41176471       0.29411765       0.05882353 </v>
   <v>       0.47058824       0.29411765       0.05882353 </v>
   <v>      -0.47058824       0.29411765       0.05882353 </v>
   <v>      -0.41176471       0.29411765       0.05882353 </v>
   <v>      -0.35294118       0.29411765       0.05882353 </v>
   <v>      -0.29411765       0.29411765       0.05882353 </v>
   <v>      -0.23529412       0.29411765       0.05882353 </v>
   <v>       0.41176471       0.35294118       0.05882353 </v>
   <v>       0.47058824       0.35294118       0.05882353 </v>
   <v>      -0.47058824       0.35294118       0.05882353 </v>
   <v>      -0.41176471       0.35294118       0.05882353 </v>
   <v>      -0.35294118       0.35294118       0.05882353 </v>
   <v>      -0.29411765       0.35294118       0.05882353 </v>
   <v>       0.47058824       0.41176471       0.05882353 </v>
   <v>      -0.47058824       0.41176471       0.05882353 </v>
   <v>      -0.41176471       0.41176471       0.05882353 </v>
   <v>      -0.35294118       0.41176471       0.05882353 </v>
   <v>      -0.47058824       0.47058824       0.05882353 </v>
   <v>      -0.41176471       0.47058824       0.05882353 </v>
   <v>       0.35294118       0.23529412       0.11764706 </v>
   <v>       0.41176471       0.23529412       0.11764706 </v>
   <v>       0.47058824       0.23529412       0.11764706 </v>
   <v>      -0.47058824       0.23529412       0.11764706 </v>
   <v>      -0.41176471       0.23529412       0.11764706 </v>
   <v>       0.41176471       0.29411765       0.11764706 </v>
   <v>       0.47058824       0.29411765       0.11764706 </v>
   <v>      -0.47058824       0.29411765       0.11764706 </v>
   <v>      -0.41176471       0.29411765       0.11764706 </v>
   <v>      -0.35294118       0.29411765       0.11764706 </v>
   <v>      -0.29411765       0.29411765       0.11764706 </v>
   <v>      -0.23529412       0.29411765       0.11764706 </v>
   <v>      -0.17647059       0.29411765       0.11764706 </v>
   <v>       0.47058824       0.35294118       0.11764706 </v>
   <v>      -0.47058824       0.35294118       0.11764706 </v>
   <v>      -0.41176471       0.35294118       0.11764706 </v>
   <v>      -0.35294118       0.35294118       0.11764706 </v>
   <v>      -0.29411765       0.35294118       0.11764706 </v>
   <v>      -0.23529412       0.35294118       0.11764706 </v>
   <v>      -0.47058824       0.41176471       0.11764706 </v>
   <v>      -0.41176471       0.41176471       0.11764706 </v>
   <v>      -0.35294118       0.41176471       0.11764706 </v>
   <v>      -0.29411765       0.41176471       0.11764706 </v>
   <v>      -0.41176471       0.47058824       0.11764706 </v>
   <v>      -0.35294118       0.47058824       0.11764706 </v>
   <v>      -0.47058824       0.35294118       0.17647059 </v>
   <v>      -0.41176471       0.35294118       0.17647059 </v>
   <v>      -0.35294118       0.35294118       0.17647059 </v>
   <v>      -0.41176471       0.41176471       0.17647059 </v>
   <v>      -0.35294118       0.41176471       0.17647059 </v>
   <v>      -0.29411765       0.41176471       0.17647059 </v>
   <v>      -0.23529412       0.41176471       0.17647059 </v>
   <v>      -0.35294118       0.47058824       0.17647059 </v>
   <v>      -0.29411765       0.47058824       0.17647059 </v>
   <v>      -0.29411765       0.47058824       0.23529412 </v>
  </varray>
  <varray name="weights" >
   <v>       0.00020354 </v>
   <v>       0.00162833 </v>
   <v>       0.00162833 </v>
   <v>       0.00162833 </v>
   <v>       0.00162833 </v>
   <v>       0.00162833 </v>
   <v>       0.00162833 </v>
   <v>       0.00162833 </v>
   <v>       0.00162833 </v>
   <v>       0.00122125 </v>
   <v>       0.00488500 </v>
   <v>       0.00488500 </v>
   <v>       0.00488500 </v>
   <v>       0.00488500 </v>
   <v>       0.00488500 </v>
   <v>       0.00488500 </v>
   <v>       0.00488500 </v>
   <v>       0.00488500 </v>
   <v>       0.00488500 </v>
   <v>       0.00488500 </v>
   <v>       0.00488500 </v>
   <v>       0.00488500 </v>
   <v>       0.00488500 </v>
   <v>       0.00488500 </v>
   <v>       0.00244250 </v>
   <v>       0.00122125 </v>
   <v>       0.00488500 </v>
   <v>       0.00488500 </v>
   <v>       0.00488500 </v>
   <v>       0.00488500 </v>
   <v>       0.00488500 </v>
   <v>       0.00488500 </v>
   <v>       0.00488500 </v>
   <v>       0.00488500 </v>
   <v>       0.00488500 </v>
   <v>       0.00488500 </v>
   <v>       0.00488500 </v>
   <v>       0.00488500 </v>
   <v>       0.00244250 </v>
   <v>       0.00122125 </v>
   <v>       0.00488500 </v>
   <v>       0.00488500 </v>
   <v>       0.00488500 </v>
   <v>       0.00488500 </v>
   <v>       0.00488500 </v>
   <v>       0.00488500 </v>
   <v>       0.00488500 </v>
   <v>       0.00488500 </v>
   <v>       0.00488500 </v>
   <v>       0.00488500 </v>
   <v>       0.00244250 </v>
   <v>       0.00122125 </v>
   <v>       0.00488500 </v>
   <v>       0.00488500 </v>
   <v>       0.00488500 </v>
   <v>       0.00488500 </v>
   <v>       0.00488500 </v>
   <v>       0.00488500 </v>
   <v>       0.00488500 </v>
   <v>       0.00488500 </v>
   <v>       0.00244250 </v>
   <v>       0.00122125 </v>
   <v>       0.00488500 </v>
   <v>       0.00488500 </v>
   <v>       0.00488500 </v>
   <v>       0.00488500 </v>
   <v>       0.00488500 </v>
   <v>       0.00488500 </v>
   <v>       0.00244250 </v>
   <v>       0.00122125 </v>
   <v>       0.00488500 </v>
   <v>       0.00488500 </v>
   <v>       0.00488500 </v>
   <v>       0.00488500 </v>
   <v>       0.00244250 </v>
   <v>       0.00122125 </v>
   <v>       0.00488500 </v>
   <v>       0.00488500 </v>
   <v>       0.00244250 </v>
   <v>       0.00122125 </v>
   <v>       0.00244250 </v>
   <v>       0.00488500 </v>
   <v>       0.00977000 </v>
   <v>       0.00977000 </v>
   <v>       0.00977000 </v>
   <v>       0.00977000 </v>
   <v>       0.00977000 </v>
   <v>       0.00977000 </v>
   <v>       0.00488500 </v>
   <v>       0.00977000 </v>
   <v>       0.00977000 </v>
   <v>       0.00977000 </v>
   <v>       0.00977000 </v>
   <v>       0.00977000 </v>
   <v>       0.00977000 </v>
   <v>       0.00977000 </v>
   <v>       0.00977000 </v>
   <v>       0.00977000 </v>
   <v>       0.00977000 </v>
   <v>       0.00488500 </v>
   <v>       0.00488500 </v>
   <v>       0.00977000 </v>
   <v>       0.00977000 </v>
   <v>       0.00977000 </v>
   <v>       0.00977000 </v>
   <v>       0.00977000 </v>
   <v>       0.00977000 </v>
   <v>       0.00977000 </v>
   <v>       0.00977000 </v>
   <v>       0.00488500 </v>
   <v>       0.00488500 </v>
   <v>       0.00977000 </v>
   <v>       0.00977000 </v>
   <v>       0.00977000 </v>
   <v>       0.00977000 </v>
   <v>       0.00977000 </v>
   <v>       0.00977000 </v>
   <v>       0.00488500 </v>
   <v>       0.00488500 </v>
   <v>       0.00977000 </v>
   <v>       0.00977000 </v>
   <v>       0.00977000 </v>
   <v>       0.00977000 </v>
   <v>       0.00488500 </v>
   <v>       0.00488500 </v>
   <v>       0.00977000 </v>
   <v>       0.00977000 </v>
   <v>       0.00488500 </v>
   <v>       0.00488500 </v>
   <v>       0.00488500 </v>
   <v>       0.00488500 </v>
   <v>       0.00977000 </v>
   <v>       0.00977000 </v>
   <v>       0.00977000 </v>
   <v>       0.00977000 </v>
   <v>       0.00488500 </v>
   <v>       0.00977000 </v>
   <v>       0.00977000 </v>
   <v>       0.00977000 </v>
   <v>       0.00977000 </v>
   <v>       0.00977000 </v>
   <v>       0.00977000 </v>
   <v>       0.00488500 </v>
   <v>       0.00488500 </v>
   <v>       0.00977000 </v>
   <v>       0.00977000 </v>
   <v>       0.00977000 </v>
   <v>       0.00977000 </v>
   <v>       0.00488500 </v>
   <v>       0.00488500 </v>
   <v>       0.00977000 </v>
   <v>       0.00977000 </v>
   <v>       0.00488500 </v>
   <v>       0.00488500 </v>
   <v>       0.00488500 </v>
   <v>       0.00488500 </v>
   <v>       0.00977000 </v>
   <v>       0.00977000 </v>
   <v>       0.00488500 </v>
   <v>       0.00977000 </v>
   <v>       0.00977000 </v>
   <v>       0.00488500 </v>
   <v>       0.00488500 </v>
   <v>       0.00488500 </v>
   <v>       0.00488500 </v>
  </varray>
 </kpoints>
 <parameters>
  <separator name="general" >
   <i type="string" name="SYSTEM">unknown system</i>
   <i type="logical" name="LCOMPAT"> F  </i>
  </separator>
  <separator name="electronic" >
   <i type="string" name="PREC">accura</i>
   <i name="ENMAX">    500.00000000</i>
   <i name="ENAUG">    322.06900000</i>
   <i name="EDIFF">      0.00000010</i>
   <i type="int" name="IALGO">    38</i>
   <i type="int" name="IWAVPR">    11</i>
   <i type="int" name="NBANDS">    16</i>
   <i name="NELECT">      8.00000000</i>
   <i type="int" name="TURBO">     0</i>
   <i type="int" name="IRESTART">     0</i>
   <i type="int" name="NREBOOT">     0</i>
   <i type="int" name="NMIN">     0</i>
   <i name="EREF">      0.00000000</i>
   <separator name="electronic smearing" >
    <i type="int" name="ISMEAR">     0</i>
    <i name="SIGMA">      0.20000000</i>
    <i name="KSPACING">      0.50000000</i>
    <i type="logical" name="KGAMMA"> T  </i>
   </separator>
   <separator name="electronic projectors" >
    <i type="logical" name="LREAL"> F  </i>
    <v name="ROPT">      0.00000000</v>
    <i type="int" name="LMAXPAW">  -100</i>
    <i type="int" name="LMAXMIX">     2</i>
    <i type="logical" name="NLSPLINE"> F  </i>
   </separator>
   <separator name="electronic startup" >
    <i type="int" name="ISTART">     0</i>
    <i type="int" name="ICHARG">     2</i>
    <i type="int" name="INIWAV">     1</i>
   </separator>
   <separator name="electronic spin" >
    <i type="int" name="ISPIN">     1</i>
    <i type="logical" name="LNONCOLLINEAR"> F  </i>
    <v name="MAGMOM">      1.00000000      1.00000000</v>
    <i name="NUPDOWN">     -1.00000000</i>
    <i type="logical" name="LSORBIT"> F  </i>
    <v name="SAXIS">      0.00000000      0.00000000      1.00000000</v>
    <i type="logical" name="LSPIRAL"> F  </i>
    <v name="QSPIRAL">      0.00000000      0.00000000      0.00000000</v>
    <i type="logical" name="LZEROZ"> F  </i>
   </separator>
   <separator name="electronic exchange-correlation" >
    <i type="logical" name="LASPH"> F  </i>
    <i type="logical" name="LMETAGGA"> F  </i>
   </separator>
   <separator name="electronic convergence" >
    <i type="int" name="NELM">   400</i>
    <i type="int" name="NELMDL">    -5</i>
    <i type="int" name="NELMIN">     2</i>
    <i name="ENINI">    500.00000000</i>
    <separator name="electronic convergence detail" >
     <i type="logical" name="LDIAG"> T  </i>
     <i type="logical" name="LSUBROT"> F  </i>
     <i name="WEIMIN">      0.00100000</i>
     <i name="EBREAK">      0.00000000</i>
     <i name="DEPER">      0.30000000</i>
     <i type="int" name="NRMM">     4</i>
     <i name="TIME">      0.40000000</i>
    </separator>
   </separator>
   <separator name="electronic mixer" >
    <i name="AMIX">      0.40000000</i>
    <i name="BMIX">      1.00000000</i>
    <i name="AMIN">      0.10000000</i>
    <i name="AMIX_MAG">      1.60000000</i>
    <i name="BMIX_MAG">      1.00000000</i>
    <separator name="electronic mixer details" >
     <i type="int" name="IMIX">     4</i>
     <i type="logical" name="MIXFIRST"> F  </i>
     <i type="int" name="MAXMIX">   -45</i>
     <i name="WC">    100.00000000</i>
     <i type="int" name="INIMIX">     1</i>
     <i type="int" name="MIXPRE">     1</i>
     <i type="int" name="MREMOVE">     5</i>
    </separator>
   </separator>
   <separator name="electronic dipolcorrection" >
    <i type="logical" name="LDIPOL"> F  </i>
    <i type="logical" name="LMONO"> F  </i>
    <i type="int" name="IDIPOL">     0</i>
    <i name="EPSILON">      1.00000000</i>
    <v name="DIPOL">   -100.00000000   -100.00000000   -100.00000000</v>
    <i name="EFIELD">      0.00000000</i>
   </separator>
  </separator>
  <separator name="grids" >
   <i type="int" name="NGX">    28</i>
   <i type="int" name="NGY">    28</i>
   <i type="int" name="NGZ">    28</i>
   <i type="int" name="NGXF">    56</i>
   <i type="int" name="NGYF">    56</i>
   <i type="int" name="NGZF">    56</i>
   <i type="logical" name="ADDGRID"> F  </i>
  </separator>
  <separator name="ionic" >
   <i type="int" name="NSW">     1</i>
   <i type="int" name="IBRION">     2</i>
   <i type="int" name="ISIF">     2</i>
   <i name="PSTRESS">      0.00000000</i>
   <i name="EDIFFG">      0.00000100</i>
   <i type="int" name="NFREE">     1</i>
   <i name="POTIM">      0.50000000</i>
   <i name="SMASS">     -3.00000000</i>
   <i name="SCALEE">      1.00000000</i>
  </separator>
  <separator name="ionic md" >
   <i name="TEBEG">      0.00010000</i>
   <i name="TEEND">      0.00010000</i>
   <i type="int" name="NBLOCK">     1</i>
   <i type="int" name="KBLOCK">     1</i>
   <i type="int" name="NPACO">   256</i>
   <i name="APACO">     16.00000000</i>
  </separator>
  <separator name="symmetry" >
   <i type="int" name="ISYM">     2</i>
   <i name="SYMPREC">      0.00001000</i>
  </separator>
  <separator name="dos" >
   <i type="logical" name="LORBIT"> T  </i>
   <v name="RWIGS">     -1.00000000</v>
   <i type="int" name="NEDOS">   301</i>
   <i name="EMIN">     10.00000000</i>
   <i name="EMAX">    -10.00000000</i>
   <i name="EFERMI">      0.00000000</i>
  </separator>
  <separator name="writing" >
   <i type="int" name="NWRITE">     2</i>
   <i type="logical" name="LWAVE"> F  </i>
   <i type="logical" name="LCHARG"> F  </i>
   <i type="logical" name="LPARD"> F  </i>
   <i type="logical" name="LVTOT"> F  </i>
   <i type="logical" name="LVHAR"> F  </i>
   <i type="logical" name="LELF"> F  </i>
   <i type="logical" name="LOPTICS"> F  </i>
   <v name="STM">      0.00000000      0.00000000      0.00000000      0.00000000      0.00000000      0.00000000      0.00000000</v>
  </separator>
  <separator name="performance" >
   <i type="int" name="NPAR">    16</i>
   <i type="int" name="NSIM">     4</i>
   <i type="int" name="NBLK">    -1</i>
   <i type="logical" name="LPLANE"> T  </i>
   <i type="logical" name="LSCALAPACK"> T  </i>
   <i type="logical" name="LSCAAWARE"> F  </i>
   <i type="logical" name="LSCALU"> F  </i>
   <i type="logical" name="LASYNC"> F  </i>
   <i type="logical" name="LORBITALREAL"> F  </i>
  </separator>
  <separator name="miscellaneous" >
   <i type="int" name="IDIOT">     3</i>
   <i type="logical" name="LMUSIC"> F  </i>
   <v name="POMASS">     28.08500000</v>
   <v name="DARWINR">      0.00000000</v>
   <v name="DARWINV">      1.00000000</v>
   <i type="logical" name="LCORR"> T  </i>
  </separator>
  <i type="logical" name="GGA_COMPAT"> T  </i>
  <i type="logical" name="LBERRY"> F  </i>
  <i type="int" name="ICORELEVEL">     0</i>
  <i type="logical" name="LDAU"> F  </i>
  <i type="int" name="I_CONSTRAINED_M">     0</i>
  <separator name="electronic exchange-correlation" >
   <i type="string" name="GGA">BO</i>
   <i type="int" name="VOSKOWN">     0</i>
   <i type="logical" name="LHFCALC"> F  </i>
   <i type="string" name="PRECFOCK"></i>
   <i type="logical" name="LSYMGRAD"> F  </i>
   <i type="logical" name="LHFONE"> F  </i>
   <i type="logical" name="LRHFCALC"> F  </i>
   <i type="logical" name="LTHOMAS"> F  </i>
   <i type="logical" name="LMODELHF"> F  </i>
   <i name="ENCUT4O">     -1.00000000</i>
   <i type="int" name="EXXOEP">     0</i>
   <i type="int" name="FOURORBIT">     0</i>
   <i name="AEXX">      0.00000000</i>
   <i name="HFALPHA">      0.00000000</i>
   <i name="MCALPHA">      0.00000000</i>
   <i name="ALDAX">      1.00000000</i>
   <i name="AGGAX">      1.00000000</i>
   <i name="ALDAC">      1.00000000</i>
   <i name="AGGAC">      0.00000000</i>
   <i type="int" name="NKREDX">     1</i>
   <i type="int" name="NKREDY">     1</i>
   <i type="int" name="NKREDZ">     1</i>
   <i type="logical" name="SHIFTRED"> F  </i>
   <i type="logical" name="ODDONLY"> F  </i>
   <i type="logical" name="EVENONLY"> F  </i>
   <i type="int" name="LMAXFOCK">     0</i>
   <i type="int" name="NMAXFOCKAE">     0</i>
   <i type="logical" name="LFOCKAEDFT"> F  </i>
   <i name="HFSCREEN">      0.00000000</i>
   <i name="HFSCREENC">      0.00000000</i>
   <i type="int" name="NBANDSGWLOW">     0</i>
  </separator>
  <separator name="vdW DFT" >
   <i type="logical" name="LUSE_VDW"> T  </i>
   <i name="Zab_VDW">     -0.84910000</i>
   <i name="PARAM1">      0.18333333</i>
   <i name="PARAM2">      0.22000000</i>
   <i name="PARAM3">      0.00000000</i>
  </separator>
  <separator name="model GW" >
   <i type="int" name="MODEL_GW">     0</i>
   <i name="MODEL_EPS0">     12.43490274</i>
   <i name="MODEL_ALPHA">      1.00000000</i>
  </separator>
  <separator name="linear response parameters" >
   <i type="logical" name="LEPSILON"> F  </i>
   <i type="logical" name="LRPA"> F  </i>
   <i type="logical" name="LNABLA"> F  </i>
   <i type="logical" name="LVEL"> F  </i>
   <i type="int" name="KINTER">     0</i>
   <i name="CSHIFT">      0.10000000</i>
   <i name="OMEGAMAX">     -1.00000000</i>
   <i name="DEG_THRESHOLD">      0.00200000</i>
  </separator>
  <separator name="orbital magnetization" >
   <i type="logical" name="NUCIND"> F  </i>
   <v name="MAGPOS">      0.00000000      0.00000000      0.00000000</v>
   <i type="logical" name="LNICSALL"> T  </i>
   <i type="logical" name="ORBITALMAG"> F  </i>
   <i type="logical" name="LMAGBLOCH"> F  </i>
   <i type="logical" name="LCHIMAG"> F  </i>
   <i type="logical" name="LGAUGE"> T  </i>
   <i type="int" name="MAGATOM">     0</i>
   <v name="MAGDIPOL">      0.00000000      0.00000000      0.00000000</v>
   <v name="AVECCONST">      0.00000000      0.00000000      0.00000000</v>
  </separator>
  <separator name="response functions" >
   <i type="logical" name="LADDER"> F  </i>
   <i type="logical" name="LFXC"> F  </i>
   <i type="logical" name="LHARTREE"> T  </i>
   <i type="int" name="IBSE">     0</i>
   <v type="int" name="KPOINT">    -1     0     0     0</v>
   <i type="logical" name="LTCTE"> F  </i>
   <i type="logical" name="LTETE"> F  </i>
   <i type="logical" name="LTRIPLET"> F  </i>
   <i type="logical" name="LFXCEPS"> F  </i>
   <i type="logical" name="LFXHEG"> F  </i>
   <i type="int" name="NATURALO">     0</i>
   <i type="logical" name="L2ORDER"> F  </i>
   <i type="logical" name="LUSEW"> F  </i>
   <i name="ENCUTGW">     -2.00000000</i>
   <i name="ENCUTGWSOFT">     -2.00000000</i>
   <i name="ENCUTLF">     -1.00000000</i>
   <i type="int" name="LMAXMP2">    -1</i>
   <i name="SCISSOR">      0.00000000</i>
   <i type="int" name="NOMEGA">     0</i>
   <i type="int" name="NOMEGAR">     0</i>
   <i type="int" name="NBANDSGW">    -1</i>
   <i type="int" name="NBANDSO">    -1</i>
   <i type="int" name="NBANDSV">    -1</i>
   <i type="int" name="NELM">   400</i>
   <i type="int" name="NELMHF">     1</i>
   <i type="int" name="DIM">     3</i>
   <i type="int" name="ANTIRES">     0</i>
   <i name="OMEGAMAX">    -30.00000000</i>
   <i name="OMEGAMIN">    -30.00000000</i>
   <i name="OMEGATL">   -200.00000000</i>
   <i type="int" name="OMEGAGRID">     0</i>
   <i name="CSHIFT">     -0.10000000</i>
   <i type="logical" name="SELFENERGY"> F  </i>
   <i type="logical" name="LSPECTRAL"> F  </i>
   <i type="logical" name="LSPECTRALGW"> F  </i>
   <i type="logical" name="LSINGLES"> F  </i>
   <i type="logical" name="LFERMIGW"> F  </i>
   <i type="logical" name="ODDONLYGW"> F  </i>
   <i type="logical" name="EVENONLYGW"> F  </i>
   <i type="int" name="NKREDLFX">     1</i>
   <i type="int" name="NKREDLFY">     1</i>
   <i type="int" name="NKREDLFZ">     1</i>
   <i type="int" name="MAXMEM">  1800</i>
   <i type="int" name="TELESCOPE">     0</i>
   <i type="int" name="TAUPAR">     1</i>
   <i type="int" name="OMEGAPAR">    -1</i>
   <i name="LAMBDA">      1.00000000</i>
  </separator>
  <separator name="External order field" >
   <i name="OFIELD_KAPPA">      0.00000000</i>
   <v name="OFIELD_K">      0.00000000      0.00000000      0.00000000</v>
   <i name="OFIELD_Q6_NEAR">      0.00000000</i>
   <i name="OFIELD_Q6_FAR">      0.00000000</i>
   <i name="OFIELD_A">      0.00000000</i>
  </separator>
 </parameters>
 <atominfo>
  <atoms>       2 </atoms>
  <types>       1 </types>
  <array name="atoms" >
   <dimension dim="1">ion</dimension>
   <field type="string">element</field>
   <field type="int">atomtype</field>
   <set>
    <rc><c>Si</c><c>   1</c></rc>
    <rc><c>Si</c><c>   1</c></rc>
   </set>
  </array>
  <array name="atomtypes" >
   <dimension dim="1">type</dimension>
   <field type="int">atomspertype</field>
   <field type="string">element</field>
   <field>mass</field>
   <field>valence</field>
   <field type="string">pseudopotential</field>
   <set>
    <rc><c>   2</c><c>Si</c><c>     28.08500000</c><c>      4.00000000</c><c>  PAW_PBE Si 05Jan2001                  </c></rc>
   </set>
  </array>
 </atominfo>
 <structure name="initialpos" >
  <crystal>
   <varray name="basis" >
    <v>       0.00000000       2.74682114       2.74682114 </v>
    <v>       2.74682114       0.00000000       2.74682114 </v>
    <v>       2.74682114       2.74682114       0.00000000 </v>
   </varray>
   <i name="volume">     41.44967579 </i>
   <varray name="rec_basis" >
    <v>      -0.18202860       0.18202860       0.18202860 </v>
    <v>       0.18202860      -0.18202860       0.18202860 </v>
    <v>       0.18202860       0.18202860      -0.18202860 </v>
   </varray>
  </crystal>
  <varray name="positions" >
   <v>       0.75000000       0.75000000       0.75000000 </v>
   <v>       0.50000000       0.50000000       0.50000000 </v>
  </varray>
 </structure>
 <calculation>
  <scstep>
   <time name="dav">    1.95    1.95</time>
   <time name="total">    4.04    4.05</time>
   <energy>
    <i name="alphaZ">      3.24857844 </i>
    <i name="ewald">   -225.91568183 </i>
    <i name="hartreedc">    -11.53197166 </i>
    <i name="XCdc">    -20.29573795 </i>
    <i name="pawpsdc">    189.40224250 </i>
    <i name="pawaedc">   -152.61488262 </i>
    <i name="eentropy">     -0.00477338 </i>
    <i name="bandstr">     12.03552167 </i>
    <i name="atom">    208.59373829 </i>
    <i name="e_fr_energy">      2.91703345 </i>
    <i name="e_wo_entrp">      2.92180684 </i>
    <i name="e_0_energy">      2.91942014 </i>
   </energy>
  </scstep>
  <scstep>
   <time name="dav">    3.35    3.35</time>
   <time name="total">    3.35    3.63</time>
   <energy>
    <i name="e_fr_energy">     -8.33090476 </i>
    <i name="e_wo_entrp">     -8.33090356 </i>
    <i name="e_0_energy">     -8.33090416 </i>
   </energy>
  </scstep>
  <scstep>
   <time name="dav">    2.18    2.18</time>
   <time name="total">    2.18    2.27</time>
   <energy>
    <i name="e_fr_energy">     -8.40898416 </i>
    <i name="e_wo_entrp">     -8.40898312 </i>
    <i name="e_0_energy">     -8.40898364 </i>
   </energy>
  </scstep>
  <scstep>
   <time name="dav">    4.53    4.52</time>
   <time name="total">    4.53    4.56</time>
   <energy>
    <i name="e_fr_energy">     -8.40921249 </i>
    <i name="e_wo_entrp">     -8.40921146 </i>
    <i name="e_0_energy">     -8.40921197 </i>
   </energy>
  </scstep>
  <scstep>
   <time name="dav">    2.20    2.20</time>
   <time name="total">    2.34    2.39</time>
   <energy>
    <i name="e_fr_energy">     -8.40921250 </i>
    <i name="e_wo_entrp">     -8.40921147 </i>
    <i name="e_0_energy">     -8.40921198 </i>
   </energy>
  </scstep>
  <scstep>
   <time name="dav">    3.71    3.71</time>
   <time name="total">    5.47    5.92</time>
   <energy>
    <i name="e_fr_energy">     -8.35975709 </i>
    <i name="e_wo_entrp">     -8.35975263 </i>
    <i name="e_0_energy">     -8.35975486 </i>
   </energy>
  </scstep>
  <scstep>
   <time name="dav">    3.41    3.41</time>
   <time name="total">    5.12    5.16</time>
   <energy>
    <i name="e_fr_energy">     -8.35393637 </i>
    <i name="e_wo_entrp">     -8.35390392 </i>
    <i name="e_0_energy">     -8.35392015 </i>
   </energy>
  </scstep>
  <scstep>
   <time name="dav">    2.48    2.48</time>
   <time name="total">    4.26    4.35</time>
   <energy>
    <i name="e_fr_energy">     -8.33751525 </i>
    <i name="e_wo_entrp">     -8.33749258 </i>
    <i name="e_0_energy">     -8.33750391 </i>
   </energy>
  </scstep>
  <scstep>
   <time name="dav">    4.00    4.00</time>
   <time name="total">    5.74    5.75</time>
   <energy>
    <i name="e_fr_energy">     -8.33864905 </i>
    <i name="e_wo_entrp">     -8.33862433 </i>
    <i name="e_0_energy">     -8.33863669 </i>
   </energy>
  </scstep>
  <scstep>
   <time name="dav">    2.49    2.49</time>
   <time name="total">    4.23    4.30</time>
   <energy>
    <i name="e_fr_energy">     -8.33866579 </i>
    <i name="e_wo_entrp">     -8.33864156 </i>
    <i name="e_0_energy">     -8.33865368 </i>
   </energy>
  </scstep>
  <scstep>
   <time name="dav">    3.98    3.98</time>
   <time name="total">    5.72    6.14</time>
   <energy>
    <i name="e_fr_energy">     -8.33848306 </i>
    <i name="e_wo_entrp">     -8.33845886 </i>
    <i name="e_0_energy">     -8.33847096 </i>
   </energy>
  </scstep>
  <scstep>
   <time name="dav">    2.46    2.46</time>
   <time name="total">    4.19    4.47</time>
   <energy>
    <i name="e_fr_energy">     -8.33847225 </i>
    <i name="e_wo_entrp">     -8.33844806 </i>
    <i name="e_0_energy">     -8.33846015 </i>
   </energy>
  </scstep>
  <scstep>
   <time name="dav">    3.33    3.33</time>
   <time name="total">    5.07    5.11</time>
   <energy>
    <i name="e_fr_energy">     -8.33847023 </i>
    <i name="e_wo_entrp">     -8.33844605 </i>
    <i name="e_0_energy">     -8.33845814 </i>
   </energy>
  </scstep>
  <scstep>
   <time name="dav">    1.46    1.46</time>
   <time name="total">    3.22    3.25</time>
   <energy>
    <i name="e_fr_energy">     -8.33847041 </i>
    <i name="e_wo_entrp">     -8.33844623 </i>
    <i name="e_0_energy">     -8.33845832 </i>
   </energy>
  </scstep>
  <scstep>
   <time name="dav">    1.72    1.72</time>
   <time name="total">    3.46    3.75</time>
   <energy>
    <i name="e_fr_energy">     -8.33847016 </i>
    <i name="e_wo_entrp">     -8.33844598 </i>
    <i name="e_0_energy">     -8.33845807 </i>
   </energy>
  </scstep>
  <scstep>
   <time name="dav">    1.45    1.45</time>
   <time name="total">    3.08    3.12</time>
   <energy>
    <i name="alphaZ">      3.24857844 </i>
    <i name="ewald">   -225.91568183 </i>
    <i name="hartreedc">    -15.53139794 </i>
    <i name="XCdc">    -19.63668046 </i>
    <i name="pawpsdc">    523.22412624 </i>
    <i name="pawaedc">   -486.67198073 </i>
    <i name="eentropy">     -0.00002418 </i>
    <i name="bandstr">      4.35085202 </i>
    <i name="atom">    208.59373829 </i>
    <i name="e_fr_energy">     -8.33847015 </i>
    <i name="e_wo_entrp">     -8.33844597 </i>
    <i name="e_0_energy">     -8.33845806 </i>
   </energy>
  </scstep>
  <structure>
   <crystal>
    <varray name="basis" >
     <v>       0.00000000       2.74682114       2.74682114 </v>
     <v>       2.74682114       0.00000000       2.74682114 </v>
     <v>       2.74682114       2.74682114       0.00000000 </v>
    </varray>
    <i name="volume">     41.44967579 </i>
    <varray name="rec_basis" >
     <v>      -0.18202860       0.18202860       0.18202860 </v>
     <v>       0.18202860      -0.18202860       0.18202860 </v>
     <v>       0.18202860       0.18202860      -0.18202860 </v>
    </varray>
   </crystal>
   <varray name="positions" >
    <v>       0.75000000       0.75000000       0.75000000 </v>
    <v>       0.50000000       0.50000000       0.50000000 </v>
   </varray>
  </structure>
  <varray name="forces" >
   <v>       0.00000000       0.00000000       0.00000000 </v>
   <v>      -0.00000000      -0.00000000      -0.00000000 </v>
  </varray>
  <varray name="stress" >
   <v>       0.00874933      -0.00000000      -0.00000000 </v>
   <v>      -0.00000000       0.00874933      -0.00000000 </v>
   <v>       0.00000000       0.00000000       0.00874933 </v>
  </varray>
  <energy>
   <i name="e_fr_energy">     -8.33847015 </i>
   <i name="e_wo_entrp">     -8.33845806 </i>
   <i name="e_0_energy">     -0.00002418 </i>
  </energy>
  <time name="totalsc">   71.86   74.27</time>
  <eigenvalues>
   <array>
    <dimension dim="1">band</dimension>
    <dimension dim="2">kpoint</dimension>
    <dimension dim="3">spin</dimension>
    <field>eigene</field>
    <field>occ</field>
    <set>
     <set comment="spin 1">
      <set comment="kpoint 1">
       <r>   -6.1919    1.0000 </r>
       <r>    5.4589    0.9938 </r>
       <r>    5.4589    0.9938 </r>
       <r>    5.4589    0.9938 </r>
       <r>    8.0741    0.0000 </r>
       <r>    8.0741    0.0000 </r>
       <r>    8.0741    0.0000 </r>
       <r>    8.5297    0.0000 </r>
       <r>   13.2140    0.0000 </r>
       <r>   13.2140    0.0000 </r>
       <r>   13.3485    0.0000 </r>
       <r>   16.6555    0.0000 </r>
       <r>   16.6555    0.0000 </r>
       <r>   16.6555    0.0000 </r>
       <r>   20.7506    0.0000 </r>
       <r>   28.1662    0.0000 </r>
      </set>
      <set comment="kpoint 2">
       <r>   -6.1479    1.0000 </r>
       <r>    4.9924    1.0000 </r>
       <r>    5.3887    0.9986 </r>
       <r>    5.3887    0.9986 </r>
       <r>    8.0999    0.0000 </r>
       <r>    8.1785    0.0000 </r>
       <r>    8.1785    0.0000 </r>
       <r>    8.8956    0.0000 </r>
       <r>   13.0707    0.0000 </r>
       <r>   13.0707    0.0000 </r>
       <r>   13.5407    0.0000 </r>
       <r>   16.4854    0.0000 </r>
       <r>   16.9424    0.0000 </r>
       <r>   16.9424    0.0000 </r>
       <r>   21.0550    0.0000 </r>
       <r>   27.6084    0.0000 </r>
      </set>
      <set comment="kpoint 3">
       <r>   -6.0166    1.0000 </r>
       <r>    4.0328    1.0000 </r>
       <r>    5.2136    1.0000 </r>
       <r>    5.2136    1.0000 </r>
       <r>    7.9549    0.0000 </r>
       <r>    8.4396    0.0000 </r>
       <r>    8.4396    0.0000 </r>
       <r>    9.8050    0.0000 </r>
       <r>   12.7818    0.0000 </r>
       <r>   12.7818    0.0000 </r>
       <r>   14.0422    0.0000 </r>
       <r>   16.1482    0.0000 </r>
       <r>   17.6737    0.0000 </r>
       <r>   17.6737    0.0000 </r>
       <r>   21.8269    0.0000 </r>
       <r>   26.3600    0.0000 </r>
      </set>
      <set comment="kpoint 4">
       <r>   -5.8004    1.0000 </r>
       <r>    2.9624    1.0000 </r>
       <r>    4.9975    1.0000 </r>
       <r>    4.9975    1.0000 </r>
       <r>    7.7304    0.0000 </r>
       <r>    8.7416    0.0000 </r>
       <r>    8.7416    0.0000 </r>
       <r>   10.8473    0.0000 </r>
       <r>   12.5765    0.0000 </r>
       <r>   12.5765    0.0000 </r>
       <r>   14.5124    0.0000 </r>
       <r>   16.1040    0.0000 </r>
       <r>   18.6523    0.0000 </r>
       <r>   18.6523    0.0000 </r>
       <r>   22.7947    0.0000 </r>
       <r>   24.8202    0.0000 </r>
      </set>
      <set comment="kpoint 5">
       <r>   -5.5040    1.0000 </r>
       <r>    1.9009    1.0000 </r>
       <r>    4.7861    1.0000 </r>
       <r>    4.7861    1.0000 </r>
       <r>    7.4977    0.0000 </r>
       <r>    8.9615    0.0000 </r>
       <r>    8.9615    0.0000 </r>
       <r>   11.8871    0.0000 </r>
       <r>   12.6254    0.0000 </r>
       <r>   12.6254    0.0000 </r>
       <r>   14.4693    0.0000 </r>
       <r>   16.8667    0.0000 </r>
       <r>   19.7039    0.0000 </r>
       <r>   19.7039    0.0000 </r>
       <r>   23.2165    0.0000 </r>
       <r>   23.3613    0.0000 </r>
      </set>
      <set comment="kpoint 6">
       <r>   -5.1368    1.0000 </r>
       <r>    0.8985    1.0000 </r>
       <r>    4.6036    1.0000 </r>
       <r>    4.6036    1.0000 </r>
       <r>    7.2909    0.0000 </r>
       <r>    9.0349    0.0000 </r>
       <r>    9.0349    0.0000 </r>
       <r>   12.8271    0.0000 </r>
       <r>   13.0083    0.0000 </r>
       <r>   13.0083    0.0000 </r>
       <r>   14.2941    0.0000 </r>
       <r>   18.0564    0.0000 </r>
       <r>   20.2898    0.0000 </r>
       <r>   20.2898    0.0000 </r>
       <r>   22.4279    0.0000 </r>
       <r>   22.5427    0.0000 </r>
      </set>
      <set comment="kpoint 7">
       <r>   -4.7194    1.0000 </r>
       <r>   -0.0059    1.0000 </r>
       <r>    4.4617    1.0000 </r>
       <r>    4.4617    1.0000 </r>
       <r>    7.1271    0.0000 </r>
       <r>    8.9983    0.0000 </r>
       <r>    8.9983    0.0000 </r>
       <r>   13.3095    0.0000 </r>
       <r>   13.6918    0.0000 </r>
       <r>   13.6918    0.0000 </r>
       <r>   14.5987    0.0000 </r>
       <r>   19.0903    0.0000 </r>
       <r>   19.4873    0.0000 </r>
       <r>   19.4873    0.0000 </r>
       <r>   21.7428    0.0000 </r>
       <r>   23.2870    0.0000 </r>
      </set>
      <set comment="kpoint 8">
       <r>   -4.3002    1.0000 </r>
       <r>   -0.7540    1.0000 </r>
       <r>    4.3655    1.0000 </r>
       <r>    4.3655    1.0000 </r>
       <r>    7.0148    0.0000 </r>
       <r>    8.9288    0.0000 </r>
       <r>    8.9288    0.0000 </r>
       <r>   13.2900    0.0000 </r>
       <r>   14.5925    0.0000 </r>
       <r>   14.5925    0.0000 </r>
       <r>   15.4741    0.0000 </r>
       <r>   18.2240    0.0000 </r>
       <r>   18.2240    0.0000 </r>
       <r>   18.9906    0.0000 </r>
       <r>   22.3365    0.0000 </r>
       <r>   24.6562    0.0000 </r>
      </set>
      <set comment="kpoint 9">
       <r>   -3.9980    1.0000 </r>
       <r>   -1.2217    1.0000 </r>
       <r>    4.3171    1.0000 </r>
       <r>    4.3171    1.0000 </r>
       <r>    6.9579    0.0000 </r>
       <r>    8.8816    0.0000 </r>
       <r>    8.8816    0.0000 </r>
       <r>   13.2236    0.0000 </r>
       <r>   15.6058    0.0000 </r>
       <r>   15.6058    0.0000 </r>
       <r>   16.3556    0.0000 </r>
       <r>   17.0072    0.0000 </r>
       <r>   17.0072    0.0000 </r>
       <r>   18.2335    0.0000 </r>
       <r>   23.8451    0.0000 </r>
       <r>   25.7089    0.0000 </r>
      </set>
      <set comment="kpoint 10">
       <r>   -6.1332    1.0000 </r>
       <r>    5.0743    1.0000 </r>
       <r>    5.2405    1.0000 </r>
       <r>    5.2405    1.0000 </r>
       <r>    7.9353    0.0000 </r>
       <r>    8.3647    0.0000 </r>
       <r>    8.3647    0.0000 </r>
       <r>    8.8999    0.0000 </r>
       <r>   12.7902    0.0000 </r>
       <r>   13.2795    0.0000 </r>
       <r>   13.6042    0.0000 </r>
       <r>   16.7585    0.0000 </r>
       <r>   16.7585    0.0000 </r>
       <r>   16.9507    0.0000 </r>
       <r>   21.1702    0.0000 </r>
       <r>   27.3432    0.0000 </r>
      </set>
      <set comment="kpoint 11">
       <r>   -6.0309    1.0000 </r>
       <r>    4.3108    1.0000 </r>
       <r>    5.0185    1.0000 </r>
       <r>    5.1592    1.0000 </r>
       <r>    7.9238    0.0000 </r>
       <r>    8.4171    0.0000 </r>
       <r>    8.6835    0.0000 </r>
       <r>    9.5806    0.0000 </r>
       <r>   12.4192    0.0000 </r>
       <r>   13.2210    0.0000 </r>
       <r>   14.0100    0.0000 </r>
       <r>   16.4964    0.0000 </r>
       <r>   17.1360    0.0000 </r>
       <r>   17.6489    0.0000 </r>
       <r>   21.8093    0.0000 </r>
       <r>   26.2428    0.0000 </r>
      </set>
      <set comment="kpoint 12">
       <r>   -5.8427    1.0000 </r>
       <r>    3.2937    1.0000 </r>
       <r>    4.7827    1.0000 </r>
       <r>    4.9939    1.0000 </r>
       <r>    7.9678    0.0000 </r>
       <r>    8.4209    0.0000 </r>
       <r>    9.0286    0.0000 </r>
       <r>   10.4692    0.0000 </r>
       <r>   12.2093    0.0000 </r>
       <r>   13.0778    0.0000 </r>
       <r>   14.5685    0.0000 </r>
       <r>   16.2416    0.0000 </r>
       <r>   17.9255    0.0000 </r>
       <r>   18.6476    0.0000 </r>
       <r>   22.7299    0.0000 </r>
       <r>   24.7263    0.0000 </r>
      </set>
      <set comment="kpoint 13">
       <r>   -5.5724    1.0000 </r>
       <r>    2.2427    1.0000 </r>
       <r>    4.5702    1.0000 </r>
       <r>    4.7710    1.0000 </r>
       <r>    7.8291    0.0000 </r>
       <r>    8.6189    0.0000 </r>
       <r>    9.2857    0.0000 </r>
       <r>   11.1324    0.0000 </r>
       <r>   12.4805    0.0000 </r>
       <r>   13.0933    0.0000 </r>
       <r>   14.7532    0.0000 </r>
       <r>   16.6416    0.0000 </r>
       <r>   18.9102    0.0000 </r>
       <r>   19.7532    0.0000 </r>
       <r>   23.2101    0.0000 </r>
       <r>   23.3042    0.0000 </r>
      </set>
      <set comment="kpoint 14">
       <r>   -5.2275    1.0000 </r>
       <r>    1.2284    1.0000 </r>
       <r>    4.4002    1.0000 </r>
       <r>    4.5429    1.0000 </r>
       <r>    7.6398    0.0000 </r>
       <r>    8.7791    0.0000 </r>
       <r>    9.3777    0.0000 </r>
       <r>   11.5992    0.0000 </r>
       <r>   13.2478    0.0000 </r>
       <r>   13.4105    0.0000 </r>
       <r>   14.5554    0.0000 </r>
       <r>   17.6918    0.0000 </r>
       <r>   19.7165    0.0000 </r>
       <r>   20.6376    0.0000 </r>
       <r>   22.0770    0.0000 </r>
       <r>   22.4970    0.0000 </r>
      </set>
      <set comment="kpoint 15">
       <r>   -4.8235    1.0000 </r>
       <r>    0.2938    1.0000 </r>
       <r>    4.2816    1.0000 </r>
       <r>    4.3373    1.0000 </r>
       <r>    7.4719    0.0000 </r>
       <r>    8.8195    0.0000 </r>
       <r>    9.3251    0.0000 </r>
       <r>   12.1971    0.0000 </r>
       <r>   13.9150    0.0000 </r>
       <r>   14.0341    0.0000 </r>
       <r>   14.6293    0.0000 </r>
       <r>   18.7547    0.0000 </r>
       <r>   19.2727    0.0000 </r>
       <r>   20.3371    0.0000 </r>
       <r>   22.0952    0.0000 </r>
       <r>   22.3908    0.0000 </r>
      </set>
      <set comment="kpoint 16">
       <r>   -4.3963    1.0000 </r>
       <r>   -0.5114    1.0000 </r>
       <r>    4.1684    1.0000 </r>
       <r>    4.2179    1.0000 </r>
       <r>    7.3465    0.0000 </r>
       <r>    8.8022    0.0000 </r>
       <r>    9.2076    0.0000 </r>
       <r>   12.8931    0.0000 </r>
       <r>   14.0038    0.0000 </r>
       <r>   14.8876    0.0000 </r>
       <r>   15.5036    0.0000 </r>
       <r>   18.0570    0.0000 </r>
       <r>   18.5408    0.0000 </r>
       <r>   19.9127    0.0000 </r>
       <r>   22.0152    0.0000 </r>
       <r>   23.6667    0.0000 </r>
      </set>
      <set comment="kpoint 17">
       <r>   -4.0350    1.0000 </r>
       <r>   -1.0908    1.0000 </r>
       <r>    4.0440    1.0000 </r>
       <r>    4.2092    1.0000 </r>
       <r>    7.2720    0.0000 </r>
       <r>    8.7962    0.0000 </r>
       <r>    9.0919    0.0000 </r>
       <r>   13.2963    0.0000 </r>
       <r>   14.4512    0.0000 </r>
       <r>   15.8307    0.0000 </r>
       <r>   16.4628    0.0000 </r>
       <r>   16.8633    0.0000 </r>
       <r>   17.5498    0.0000 </r>
       <r>   19.0478    0.0000 </r>
       <r>   23.2830    0.0000 </r>
       <r>   25.1587    0.0000 </r>
      </set>
      <set comment="kpoint 18">
       <r>   -3.9183    1.0000 </r>
       <r>   -1.2621    1.0000 </r>
       <r>    3.9689    1.0000 </r>
       <r>    4.2536    1.0000 </r>
       <r>    7.2519    0.0000 </r>
       <r>    8.8359    0.0000 </r>
       <r>    9.0135    0.0000 </r>
       <r>   13.3668    0.0000 </r>
       <r>   15.1913    0.0000 </r>
       <r>   15.4248    0.0000 </r>
       <r>   16.4364    0.0000 </r>
       <r>   17.2160    0.0000 </r>
       <r>   17.3658    0.0000 </r>
       <r>   18.3711    0.0000 </r>
       <r>   24.2943    0.0000 </r>
       <r>   25.0869    0.0000 </r>
      </set>
      <set comment="kpoint 19">
       <r>   -4.1391    1.0000 </r>
       <r>   -0.9317    1.0000 </r>
       <r>    3.9471    1.0000 </r>
       <r>    4.3479    1.0000 </r>
       <r>    7.2873    0.0000 </r>
       <r>    8.9274    0.0000 </r>
       <r>    8.9821    0.0000 </r>
       <r>   13.3593    0.0000 </r>
       <r>   14.3548    0.0000 </r>
       <r>   14.8952    0.0000 </r>
       <r>   16.5306    0.0000 </r>
       <r>   16.9839    0.0000 </r>
       <r>   18.4380    0.0000 </r>
       <r>   19.0644    0.0000 </r>
       <r>   22.7342    0.0000 </r>
       <r>   24.6090    0.0000 </r>
      </set>
      <set comment="kpoint 20">
       <r>   -4.5379    1.0000 </r>
       <r>   -0.2606    1.0000 </r>
       <r>    3.9812    1.0000 </r>
       <r>    4.4875    1.0000 </r>
       <r>    7.3772    0.0000 </r>
       <r>    8.9836    0.0000 </r>
       <r>    9.0527    0.0000 </r>
       <r>   13.1245    0.0000 </r>
       <r>   13.4079    0.0000 </r>
       <r>   14.3897    0.0000 </r>
       <r>   15.4853    0.0000 </r>
       <r>   18.1048    0.0000 </r>
       <r>   19.5645    0.0000 </r>
       <r>   19.7210    0.0000 </r>
       <r>   21.7701    0.0000 </r>
       <r>   23.1431    0.0000 </r>
      </set>
      <set comment="kpoint 21">
       <r>   -4.9636    1.0000 </r>
       <r>    0.5950    1.0000 </r>
       <r>    4.0730    1.0000 </r>
       <r>    4.6661    1.0000 </r>
       <r>    7.5183    0.0000 </r>
       <r>    8.9739    0.0000 </r>
       <r>    9.1635    0.0000 </r>
       <r>   12.5166    0.0000 </r>
       <r>   12.6681    0.0000 </r>
       <r>   14.3195    0.0000 </r>
       <r>   14.5622    0.0000 </r>
       <r>   18.3713    0.0000 </r>
       <r>   19.5572    0.0000 </r>
       <r>   20.7722    0.0000 </r>
       <r>   21.7446    0.0000 </r>
       <r>   22.4899    0.0000 </r>
      </set>
      <set comment="kpoint 22">
       <r>   -5.3504    1.0000 </r>
       <r>    1.5597    1.0000 </r>
       <r>    4.2228    1.0000 </r>
       <r>    4.8735    1.0000 </r>
       <r>    7.7036    0.0000 </r>
       <r>    8.8826    0.0000 </r>
       <r>    9.1724    0.0000 </r>
       <r>   11.8269    0.0000 </r>
       <r>   12.2208    0.0000 </r>
       <r>   13.6177    0.0000 </r>
       <r>   14.6534    0.0000 </r>
       <r>   17.2820    0.0000 </r>
       <r>   19.4274    0.0000 </r>
       <r>   20.5967    0.0000 </r>
       <r>   21.9847    0.0000 </r>
       <r>   23.2955    0.0000 </r>
      </set>
      <set comment="kpoint 23">
       <r>   -5.6716    1.0000 </r>
       <r>    2.5875    1.0000 </r>
       <r>    4.4284    1.0000 </r>
       <r>    5.0916    1.0000 </r>
       <r>    7.9182    0.0000 </r>
       <r>    8.6687    0.0000 </r>
       <r>    8.9927    0.0000 </r>
       <r>   11.1079    0.0000 </r>
       <r>   12.1190    0.0000 </r>
       <r>   13.1071    0.0000 </r>
       <r>   14.7766    0.0000 </r>
       <r>   16.4021    0.0000 </r>
       <r>   18.4458    0.0000 </r>
       <r>   19.5761    0.0000 </r>
       <r>   23.1708    0.0000 </r>
       <r>   23.4226    0.0000 </r>
      </set>
      <set comment="kpoint 24">
       <r>   -5.9150    1.0000 </r>
       <r>    3.6218    1.0000 </r>
       <r>    4.6876    1.0000 </r>
       <r>    5.2868    0.9999 </r>
       <r>    8.1314    0.0000 </r>
       <r>    8.3956    0.0000 </r>
       <r>    8.6463    0.0000 </r>
       <r>   10.2726    0.0000 </r>
       <r>   12.3138    0.0000 </r>
       <r>   13.0024    0.0000 </r>
       <r>   14.3893    0.0000 </r>
       <r>   16.2919    0.0000 </r>
       <r>   17.4823    0.0000 </r>
       <r>   18.5105    0.0000 </r>
       <r>   22.3674    0.0000 </r>
       <r>   24.8416    0.0000 </r>
      </set>
      <set comment="kpoint 25">
       <r>   -6.0748    1.0000 </r>
       <r>    4.5201    1.0000 </r>
       <r>    5.0205    1.0000 </r>
       <r>    5.4043    0.9980 </r>
       <r>    8.1953    0.0000 </r>
       <r>    8.2695    0.0000 </r>
       <r>    8.2765    0.0000 </r>
       <r>    9.4225    0.0000 </r>
       <r>   12.6831    0.0000 </r>
       <r>   13.0962    0.0000 </r>
       <r>   13.8402    0.0000 </r>
       <r>   16.5282    0.0000 </r>
       <r>   16.8688    0.0000 </r>
       <r>   17.5884    0.0000 </r>
       <r>   21.5207    0.0000 </r>
       <r>   26.3589    0.0000 </r>
      </set>
      <set comment="kpoint 26">
       <r>   -5.9576    1.0000 </r>
       <r>    4.2377    1.0000 </r>
       <r>    4.7672    1.0000 </r>
       <r>    4.7672    1.0000 </r>
       <r>    7.5920    0.0000 </r>
       <r>    9.0528    0.0000 </r>
       <r>    9.0528    0.0000 </r>
       <r>    9.5662    0.0000 </r>
       <r>   12.0498    0.0000 </r>
       <r>   13.4757    0.0000 </r>
       <r>   14.2951    0.0000 </r>
       <r>   17.0650    0.0000 </r>
       <r>   17.0650    0.0000 </r>
       <r>   17.5222    0.0000 </r>
       <r>   22.3255    0.0000 </r>
       <r>   25.8607    0.0000 </r>
      </set>
      <set comment="kpoint 27">
       <r>   -5.7979    1.0000 </r>
       <r>    3.4837    1.0000 </r>
       <r>    4.5150    1.0000 </r>
       <r>    4.6004    1.0000 </r>
       <r>    7.5436    0.0000 </r>
       <r>    9.0968    0.0000 </r>
       <r>    9.4525    0.0000 </r>
       <r>   10.0637    0.0000 </r>
       <r>   11.9831    0.0000 </r>
       <r>   13.5212    0.0000 </r>
       <r>   14.8236    0.0000 </r>
       <r>   16.8485    0.0000 </r>
       <r>   17.5172    0.0000 </r>
       <r>   18.3604    0.0000 </r>
       <r>   23.1653    0.0000 </r>
       <r>   24.6488    0.0000 </r>
      </set>
      <set comment="kpoint 28">
       <r>   -5.5547    1.0000 </r>
       <r>    2.5239    1.0000 </r>
       <r>    4.2949    1.0000 </r>
       <r>    4.3876    1.0000 </r>
       <r>    7.6863    0.0000 </r>
       <r>    9.0048    0.0000 </r>
       <r>    9.7742    0.0000 </r>
       <r>   10.3060    0.0000 </r>
       <r>   12.5406    0.0000 </r>
       <r>   13.5679    0.0000 </r>
       <r>   15.2809    0.0000 </r>
       <r>   16.8086    0.0000 </r>
       <r>   18.3220    0.0000 </r>
       <r>   19.4887    0.0000 </r>
       <r>   23.1447    0.0000 </r>
       <r>   23.4684    0.0000 </r>
      </set>
      <set comment="kpoint 29">
       <r>   -5.2339    1.0000 </r>
       <r>    1.5435    1.0000 </r>
       <r>    4.1236    1.0000 </r>
       <r>    4.1246    1.0000 </r>
       <r>    7.7885    0.0000 </r>
       <r>    9.0021    0.0000 </r>
       <r>    9.9233    0.0000 </r>
       <r>   10.4398    0.0000 </r>
       <r>   13.4798    0.0000 </r>
       <r>   13.8396    0.0000 </r>
       <r>   15.2251    0.0000 </r>
       <r>   17.5272    0.0000 </r>
       <r>   19.1569    0.0000 </r>
       <r>   20.5239    0.0000 </r>
       <r>   21.8481    0.0000 </r>
       <r>   22.4674    0.0000 </r>
      </set>
      <set comment="kpoint 30">
       <r>   -4.8474    1.0000 </r>
       <r>    0.6091    1.0000 </r>
       <r>    3.8594    1.0000 </r>
       <r>    4.0126    1.0000 </r>
       <r>    7.7668    0.0000 </r>
       <r>    9.0067    0.0000 </r>
       <r>    9.8925    0.0000 </r>
       <r>   10.8532    0.0000 </r>
       <r>   14.4089    0.0000 </r>
       <r>   14.4564    0.0000 </r>
       <r>   15.0310    0.0000 </r>
       <r>   18.5043    0.0000 </r>
       <r>   19.0667    0.0000 </r>
       <r>   20.5102    0.0000 </r>
       <r>   21.7017    0.0000 </r>
       <r>   22.6126    0.0000 </r>
      </set>
      <set comment="kpoint 31">
       <r>   -4.4215    1.0000 </r>
       <r>   -0.2277    1.0000 </r>
       <r>    3.6240    1.0000 </r>
       <r>    3.9624    1.0000 </r>
       <r>    7.7014    0.0000 </r>
       <r>    8.9635    0.0000 </r>
       <r>    9.7581    0.0000 </r>
       <r>   11.5718    0.0000 </r>
       <r>   14.5978    0.0000 </r>
       <r>   15.2200    0.0000 </r>
       <r>   15.7227    0.0000 </r>
       <r>   17.9385    0.0000 </r>
       <r>   18.4854    0.0000 </r>
       <r>   20.6637    0.0000 </r>
       <r>   22.3761    0.0000 </r>
       <r>   22.8041    0.0000 </r>
      </set>
      <set comment="kpoint 32">
       <r>   -4.0219    1.0000 </r>
       <r>   -0.8884    1.0000 </r>
       <r>    3.4325    1.0000 </r>
       <r>    3.9744    1.0000 </r>
       <r>    7.6572    0.0000 </r>
       <r>    8.9259    0.0000 </r>
       <r>    9.5984    0.0000 </r>
       <r>   12.4586    0.0000 </r>
       <r>   14.4335    0.0000 </r>
       <r>   16.0718    0.0000 </r>
       <r>   16.7033    0.0000 </r>
       <r>   16.8013    0.0000 </r>
       <r>   17.6470    0.0000 </r>
       <r>   20.4892    0.0000 </r>
       <r>   22.7942    0.0000 </r>
       <r>   24.2287    0.0000 </r>
      </set>
      <set comment="kpoint 33">
       <r>   -3.8010    1.0000 </r>
       <r>   -1.2136    1.0000 </r>
       <r>    3.2944    1.0000 </r>
       <r>    4.0462    1.0000 </r>
       <r>    7.6595    0.0000 </r>
       <r>    8.9335    0.0000 </r>
       <r>    9.4599    0.0000 </r>
       <r>   13.3313    0.0000 </r>
       <r>   14.3223    0.0000 </r>
       <r>   15.3024    0.0000 </r>
       <r>   16.4825    0.0000 </r>
       <r>   17.4704    0.0000 </r>
       <r>   18.0795    0.0000 </r>
       <r>   19.4399    0.0000 </r>
       <r>   24.2477    0.0000 </r>
       <r>   24.6499    0.0000 </r>
      </set>
      <set comment="kpoint 34">
       <r>   -3.9206    1.0000 </r>
       <r>   -1.0396    1.0000 </r>
       <r>    3.2164    1.0000 </r>
       <r>    4.1733    1.0000 </r>
       <r>    7.7139    0.0000 </r>
       <r>    8.9994    0.0000 </r>
       <r>    9.3606    0.0000 </r>
       <r>   13.5941    0.0000 </r>
       <r>   14.1858    0.0000 </r>
       <r>   14.4384    0.0000 </r>
       <r>   16.2506    0.0000 </r>
       <r>   18.1331    0.0000 </r>
       <r>   18.6900    0.0000 </r>
       <r>   19.2759    0.0000 </r>
       <r>   22.9087    0.0000 </r>
       <r>   24.7764    0.0000 </r>
      </set>
      <set comment="kpoint 35">
       <r>   -4.2841    1.0000 </r>
       <r>   -0.4645    1.0000 </r>
       <r>    3.2042    1.0000 </r>
       <r>    4.3490    1.0000 </r>
       <r>    7.8175    0.0000 </r>
       <r>    9.1161    0.0000 </r>
       <r>    9.2936    0.0000 </r>
       <r>   13.0036    0.0000 </r>
       <r>   13.1977    0.0000 </r>
       <r>   14.7098    0.0000 </r>
       <r>   16.9141    0.0000 </r>
       <r>   17.0294    0.0000 </r>
       <r>   19.9447    0.0000 </r>
       <r>   19.9771    0.0000 </r>
       <r>   21.7252    0.0000 </r>
       <r>   23.2500    0.0000 </r>
      </set>
      <set comment="kpoint 36">
       <r>   -4.7116    1.0000 </r>
       <r>    0.3248    1.0000 </r>
       <r>    3.2640    1.0000 </r>
       <r>    4.5628    1.0000 </r>
       <r>    7.9634    0.0000 </r>
       <r>    9.2224    0.0000 </r>
       <r>    9.2454    0.0000 </r>
       <r>   12.2238    0.0000 </r>
       <r>   12.4122    0.0000 </r>
       <r>   14.9643    0.0000 </r>
       <r>   15.9329    0.0000 </r>
       <r>   17.8104    0.0000 </r>
       <r>   19.4440    0.0000 </r>
       <r>   21.1572    0.0000 </r>
       <r>   21.3437    0.0000 </r>
       <r>   22.5654    0.0000 </r>
      </set>
      <set comment="kpoint 37">
       <r>   -5.1147    1.0000 </r>
       <r>    1.2245    1.0000 </r>
       <r>    3.4046    1.0000 </r>
       <r>    4.7986    1.0000 </r>
       <r>    8.1406    0.0000 </r>
       <r>    9.0810    0.0000 </r>
       <r>    9.2890    0.0000 </r>
       <r>   11.5469    0.0000 </r>
       <r>   11.9182    0.0000 </r>
       <r>   14.8636    0.0000 </r>
       <r>   15.2668    0.0000 </r>
       <r>   17.5632    0.0000 </r>
       <r>   19.2303    0.0000 </r>
       <r>   20.7747    0.0000 </r>
       <r>   21.4651    0.0000 </r>
       <r>   23.3192    0.0000 </r>
      </set>
      <set comment="kpoint 38">
       <r>   -5.4585    1.0000 </r>
       <r>    2.1603    1.0000 </r>
       <r>    3.6478    1.0000 </r>
       <r>    5.0298    1.0000 </r>
       <r>    8.3271    0.0000 </r>
       <r>    8.8335    0.0000 </r>
       <r>    9.0995    0.0000 </r>
       <r>   11.1103    0.0000 </r>
       <r>   11.7768    0.0000 </r>
       <r>   13.9540    0.0000 </r>
       <r>   15.3678    0.0000 </r>
       <r>   16.7964    0.0000 </r>
       <r>   18.4141    0.0000 </r>
       <r>   20.6043    0.0000 </r>
       <r>   21.7639    0.0000 </r>
       <r>   23.7607    0.0000 </r>
      </set>
      <set comment="kpoint 39">
       <r>   -5.7277    1.0000 </r>
       <r>    3.0128    1.0000 </r>
       <r>    4.0581    1.0000 </r>
       <r>    5.2124    1.0000 </r>
       <r>    8.4323    0.0000 </r>
       <r>    8.5581    0.0000 </r>
       <r>    8.7339    0.0000 </r>
       <r>   10.7724    0.0000 </r>
       <r>   11.9436    0.0000 </r>
       <r>   13.3001    0.0000 </r>
       <r>   14.9579    0.0000 </r>
       <r>   16.5633    0.0000 </r>
       <r>   17.5986    0.0000 </r>
       <r>   19.5230    0.0000 </r>
       <r>   23.1832    0.0000 </r>
       <r>   23.2555    0.0000 </r>
      </set>
      <set comment="kpoint 40">
       <r>   -5.6666    1.0000 </r>
       <r>    3.2588    1.0000 </r>
       <r>    4.2489    1.0000 </r>
       <r>    4.2489    1.0000 </r>
       <r>    7.1752    0.0000 </r>
       <r>    9.6007    0.0000 </r>
       <r>    9.9240    0.0000 </r>
       <r>    9.9240    0.0000 </r>
       <r>   12.0417    0.0000 </r>
       <r>   13.8026    0.0000 </r>
       <r>   15.2782    0.0000 </r>
       <r>   17.5624    0.0000 </r>
       <r>   17.5624    0.0000 </r>
       <r>   18.1586    0.0000 </r>
       <r>   23.9435    0.0000 </r>
       <r>   24.3133    0.0000 </r>
      </set>
      <set comment="kpoint 41">
       <r>   -5.4509    1.0000 </r>
       <r>    2.5793    1.0000 </r>
       <r>    4.0078    1.0000 </r>
       <r>    4.0174    1.0000 </r>
       <r>    7.1347    0.0000 </r>
       <r>    9.3209    0.0000 </r>
       <r>   10.2216    0.0000 </r>
       <r>   10.3400    0.0000 </r>
       <r>   12.6327    0.0000 </r>
       <r>   13.9693    0.0000 </r>
       <r>   15.8397    0.0000 </r>
       <r>   17.4535    0.0000 </r>
       <r>   18.0582    0.0000 </r>
       <r>   19.0662    0.0000 </r>
       <r>   23.1196    0.0000 </r>
       <r>   23.3531    0.0000 </r>
      </set>
      <set comment="kpoint 42">
       <r>   -5.1554    1.0000 </r>
       <r>    1.7344    1.0000 </r>
       <r>    3.7072    1.0000 </r>
       <r>    3.8383    1.0000 </r>
       <r>    7.3045    0.0000 </r>
       <r>    9.2411    0.0000 </r>
       <r>   10.1811    0.0000 </r>
       <r>   10.5881    0.0000 </r>
       <r>   13.6214    0.0000 </r>
       <r>   14.2404    0.0000 </r>
       <r>   16.0842    0.0000 </r>
       <r>   17.6938    0.0000 </r>
       <r>   18.7568    0.0000 </r>
       <r>   20.1623    0.0000 </r>
       <r>   21.7827    0.0000 </r>
       <r>   22.3496    0.0000 </r>
      </set>
      <set comment="kpoint 43">
       <r>   -4.7894    1.0000 </r>
       <r>    0.8638    1.0000 </r>
       <r>    3.3764    1.0000 </r>
       <r>    3.7209    1.0000 </r>
       <r>    7.4413    0.0000 </r>
       <r>    9.5227    0.0000 </r>
       <r>   10.0427    0.0000 </r>
       <r>   10.6215    0.0000 </r>
       <r>   14.7285    0.0000 </r>
       <r>   14.7731    0.0000 </r>
       <r>   15.8812    0.0000 </r>
       <r>   18.4708    0.0000 </r>
       <r>   18.8745    0.0000 </r>
       <r>   20.4033    0.0000 </r>
       <r>   21.2764    0.0000 </r>
       <r>   22.4164    0.0000 </r>
      </set>
      <set comment="kpoint 44">
       <r>   -4.3721    1.0000 </r>
       <r>    0.0407    1.0000 </r>
       <r>    3.0656    1.0000 </r>
       <r>    3.6694    1.0000 </r>
       <r>    7.4758    0.0000 </r>
       <r>    9.8341    0.0000 </r>
       <r>   10.2347    0.0000 </r>
       <r>   10.5035    0.0000 </r>
       <r>   15.4633    0.0000 </r>
       <r>   15.5558    0.0000 </r>
       <r>   15.9664    0.0000 </r>
       <r>   17.8663    0.0000 </r>
       <r>   18.5499    0.0000 </r>
       <r>   20.5964    0.0000 </r>
       <r>   22.1284    0.0000 </r>
       <r>   23.3770    0.0000 </r>
      </set>
      <set comment="kpoint 45">
       <r>   -3.9512    1.0000 </r>
       <r>   -0.6602    1.0000 </r>
       <r>    2.8015    1.0000 </r>
       <r>    3.6848    1.0000 </r>
       <r>    7.4912    0.0000 </r>
       <r>    9.7335    0.0000 </r>
       <r>   10.3259    0.0000 </r>
       <r>   11.1061    0.0000 </r>
       <r>   15.1376    0.0000 </r>
       <r>   16.2863    0.0000 </r>
       <r>   16.8366    0.0000 </r>
       <r>   16.9992    0.0000 </r>
       <r>   17.8031    0.0000 </r>
       <r>   21.5801    0.0000 </r>
       <r>   22.8029    0.0000 </r>
       <r>   23.4186    0.0000 </r>
      </set>
      <set comment="kpoint 46">
       <r>   -3.6469    1.0000 </r>
       <r>   -1.1046    1.0000 </r>
       <r>    2.5983    1.0000 </r>
       <r>    3.7652    1.0000 </r>
       <r>    7.5473    0.0000 </r>
       <r>    9.6601    0.0000 </r>
       <r>   10.1489    0.0000 </r>
       <r>   12.1351    0.0000 </r>
       <r>   14.6145    0.0000 </r>
       <r>   15.2457    0.0000 </r>
       <r>   16.9111    0.0000 </r>
       <r>   17.7436    0.0000 </r>
       <r>   18.3379    0.0000 </r>
       <r>   21.0235    0.0000 </r>
       <r>   23.7052    0.0000 </r>
       <r>   24.4598    0.0000 </r>
      </set>
      <set comment="kpoint 47">
       <r>   -3.6539    1.0000 </r>
       <r>   -1.0923    1.0000 </r>
       <r>    2.4660    1.0000 </r>
       <r>    3.9066    1.0000 </r>
       <r>    7.6637    0.0000 </r>
       <r>    9.6369    0.0000 </r>
       <r>    9.9984    0.0000 </r>
       <r>   13.2361    0.0000 </r>
       <r>   13.8405    0.0000 </r>
       <r>   14.0917    0.0000 </r>
       <r>   16.6395    0.0000 </r>
       <r>   18.9612    0.0000 </r>
       <r>   19.4311    0.0000 </r>
       <r>   19.8651    0.0000 </r>
       <r>   22.7980    0.0000 </r>
       <r>   25.0990    0.0000 </r>
      </set>
      <set comment="kpoint 48">
       <r>   -3.9657    1.0000 </r>
       <r>   -0.6323    1.0000 </r>
       <r>    2.4146    1.0000 </r>
       <r>    4.1015    1.0000 </r>
       <r>    7.8382    0.0000 </r>
       <r>    9.6627    0.0000 </r>
       <r>    9.8713    0.0000 </r>
       <r>   12.9226    0.0000 </r>
       <r>   13.0717    0.0000 </r>
       <r>   14.3185    0.0000 </r>
       <r>   16.7498    0.0000 </r>
       <r>   18.6563    0.0000 </r>
       <r>   20.2439    0.0000 </r>
       <r>   20.2457    0.0000 </r>
       <r>   21.5277    0.0000 </r>
       <r>   23.6735    0.0000 </r>
      </set>
      <set comment="kpoint 49">
       <r>   -4.3871    1.0000 </r>
       <r>    0.0672    1.0000 </r>
       <r>    2.4589    1.0000 </r>
       <r>    4.3379    1.0000 </r>
       <r>    8.0547    0.0000 </r>
       <r>    9.7120    0.0000 </r>
       <r>    9.7290    0.0000 </r>
       <r>   12.0254    0.0000 </r>
       <r>   12.2605    0.0000 </r>
       <r>   15.2245    0.0000 </r>
       <r>   17.1547    0.0000 </r>
       <r>   17.4985    0.0000 </r>
       <r>   19.5547    0.0000 </r>
       <r>   21.4592    0.0000 </r>
       <r>   21.4763    0.0000 </r>
       <r>   22.6377    0.0000 </r>
      </set>
      <set comment="kpoint 50">
       <r>   -4.8023    1.0000 </r>
       <r>    0.8535    1.0000 </r>
       <r>    2.6309    1.0000 </r>
       <r>    4.5961    1.0000 </r>
       <r>    8.2807    0.0000 </r>
       <r>    9.4983    0.0000 </r>
       <r>    9.6827    0.0000 </r>
       <r>   11.3271    0.0000 </r>
       <r>   11.7600    0.0000 </r>
       <r>   15.7994    0.0000 </r>
       <r>   16.2491    0.0000 </r>
       <r>   17.4731    0.0000 </r>
       <r>   19.0330    0.0000 </r>
       <r>   20.4991    0.0000 </r>
       <r>   22.1407    0.0000 </r>
       <r>   23.1739    0.0000 </r>
      </set>
      <set comment="kpoint 51">
       <r>   -5.1658    1.0000 </r>
       <r>    1.5928    1.0000 </r>
       <r>    3.0039    1.0000 </r>
       <r>    4.8438    1.0000 </r>
       <r>    8.4435    0.0000 </r>
       <r>    9.1600    0.0000 </r>
       <r>    9.3998    0.0000 </r>
       <r>   11.0581    0.0000 </r>
       <r>   11.6232    0.0000 </r>
       <r>   15.0429    0.0000 </r>
       <r>   15.9299    0.0000 </r>
       <r>   17.0155    0.0000 </r>
       <r>   18.9391    0.0000 </r>
       <r>   20.4520    0.0000 </r>
       <r>   21.6043    0.0000 </r>
       <r>   23.7378    0.0000 </r>
      </set>
      <set comment="kpoint 52">
       <r>   -5.2625    1.0000 </r>
       <r>    2.2384    1.0000 </r>
       <r>    3.7726    1.0000 </r>
       <r>    3.7726    1.0000 </r>
       <r>    6.7798    0.0000 </r>
       <r>    8.8716    0.0000 </r>
       <r>   10.8860    0.0000 </r>
       <r>   10.8860    0.0000 </r>
       <r>   12.9576    0.0000 </r>
       <r>   14.2596    0.0000 </r>
       <r>   16.4284    0.0000 </r>
       <r>   18.2004    0.0000 </r>
       <r>   18.2004    0.0000 </r>
       <r>   18.8927    0.0000 </r>
       <r>   22.8777    0.0000 </r>
       <r>   22.8777    0.0000 </r>
      </set>
      <set comment="kpoint 53">
       <r>   -4.9930    1.0000 </r>
       <r>    1.6258    1.0000 </r>
       <r>    3.4927    1.0000 </r>
       <r>    3.5802    1.0000 </r>
       <r>    6.7733    0.0000 </r>
       <r>    8.5589    0.0000 </r>
       <r>   11.1427    0.0000 </r>
       <r>   11.2870    0.0000 </r>
       <r>   13.7588    0.0000 </r>
       <r>   14.5611    0.0000 </r>
       <r>   16.9184    0.0000 </r>
       <r>   18.2545    0.0000 </r>
       <r>   18.6325    0.0000 </r>
       <r>   19.7579    0.0000 </r>
       <r>   21.8251    0.0000 </r>
       <r>   22.1458    0.0000 </r>
      </set>
      <set comment="kpoint 54">
       <r>   -4.6494    1.0000 </r>
       <r>    0.9093    1.0000 </r>
       <r>    3.1028    1.0000 </r>
       <r>    3.4505    1.0000 </r>
       <r>    6.9604    0.0000 </r>
       <r>    8.5598    0.0000 </r>
       <r>   11.1014    0.0000 </r>
       <r>   11.4424    0.0000 </r>
       <r>   14.8566    0.0000 </r>
       <r>   15.0715    0.0000 </r>
       <r>   16.8712    0.0000 </r>
       <r>   18.7393    0.0000 </r>
       <r>   18.7444    0.0000 </r>
       <r>   20.1852    0.0000 </r>
       <r>   21.1283    0.0000 </r>
       <r>   22.0914    0.0000 </r>
      </set>
      <set comment="kpoint 55">
       <r>   -4.2460    1.0000 </r>
       <r>    0.1763    1.0000 </r>
       <r>    2.6932    1.0000 </r>
       <r>    3.3887    1.0000 </r>
       <r>    7.0840    0.0000 </r>
       <r>    8.9974    0.0000 </r>
       <r>   10.9728    0.0000 </r>
       <r>   11.3816    0.0000 </r>
       <r>   15.8430    0.0000 </r>
       <r>   16.0098    0.0000 </r>
       <r>   16.4891    0.0000 </r>
       <r>   17.8401    0.0000 </r>
       <r>   18.9070    0.0000 </r>
       <r>   20.3384    0.0000 </r>
       <r>   21.6780    0.0000 </r>
       <r>   23.1989    0.0000 </r>
      </set>
      <set comment="kpoint 56">
       <r>   -3.8169    1.0000 </r>
       <r>   -0.5006    1.0000 </r>
       <r>    2.3295    1.0000 </r>
       <r>    3.3965    1.0000 </r>
       <r>    7.1376    0.0000 </r>
       <r>    9.7789    0.0000 </r>
       <r>   10.8449    0.0000 </r>
       <r>   11.2120    0.0000 </r>
       <r>   15.8023    0.0000 </r>
       <r>   16.4499    0.0000 </r>
       <r>   16.9472    0.0000 </r>
       <r>   17.2575    0.0000 </r>
       <r>   18.2964    0.0000 </r>
       <r>   21.4735    0.0000 </r>
       <r>   22.7157    0.0000 </r>
       <r>   23.8868    0.0000 </r>
      </set>
      <set comment="kpoint 57">
       <r>   -3.4524    1.0000 </r>
       <r>   -1.0077    1.0000 </r>
       <r>    2.0413    1.0000 </r>
       <r>    3.4728    1.0000 </r>
       <r>    7.2134    0.0000 </r>
       <r>   10.5943    0.0000 </r>
       <r>   10.9127    0.0000 </r>
       <r>   11.0145    0.0000 </r>
       <r>   14.9515    0.0000 </r>
       <r>   15.2563    0.0000 </r>
       <r>   17.7784    0.0000 </r>
       <r>   17.9965    0.0000 </r>
       <r>   18.5071    0.0000 </r>
       <r>   22.5106    0.0000 </r>
       <r>   23.1562    0.0000 </r>
       <r>   23.5605    0.0000 </r>
      </set>
      <set comment="kpoint 58">
       <r>   -3.3484    1.0000 </r>
       <r>   -1.1385    1.0000 </r>
       <r>    1.8450    1.0000 </r>
       <r>    3.6143    1.0000 </r>
       <r>    7.3512    0.0000 </r>
       <r>   10.6147    0.0000 </r>
       <r>   10.8250    0.0000 </r>
       <r>   11.9357    0.0000 </r>
       <r>   13.9456    0.0000 </r>
       <r>   14.0765    0.0000 </r>
       <r>   17.6311    0.0000 </r>
       <r>   19.2202    0.0000 </r>
       <r>   19.6138    0.0000 </r>
       <r>   21.5256    0.0000 </r>
       <r>   22.5883    0.0000 </r>
       <r>   23.8641    0.0000 </r>
      </set>
      <set comment="kpoint 59">
       <r>   -3.5946    1.0000 </r>
       <r>   -0.8076    1.0000 </r>
       <r>    1.7582    1.0000 </r>
       <r>    3.8139    1.0000 </r>
       <r>    7.5566    0.0000 </r>
       <r>   10.5833    0.0000 </r>
       <r>   10.6383    0.0000 </r>
       <r>   12.8165    0.0000 </r>
       <r>   13.0417    0.0000 </r>
       <r>   13.2165    0.0000 </r>
       <r>   17.6679    0.0000 </r>
       <r>   20.1647    0.0000 </r>
       <r>   20.4978    0.0000 </r>
       <r>   20.5006    0.0000 </r>
       <r>   21.3474    0.0000 </r>
       <r>   23.8674    0.0000 </r>
      </set>
      <set comment="kpoint 60">
       <r>   -4.0022    1.0000 </r>
       <r>   -0.2328    1.0000 </r>
       <r>    1.8145    1.0000 </r>
       <r>    4.0598    1.0000 </r>
       <r>    7.8157    0.0000 </r>
       <r>   10.3935    0.0000 </r>
       <r>   10.5408    0.0000 </r>
       <r>   11.9287    0.0000 </r>
       <r>   12.2502    0.0000 </r>
       <r>   14.3707    0.0000 </r>
       <r>   17.8200    0.0000 </r>
       <r>   18.9725    0.0000 </r>
       <r>   19.4301    0.0000 </r>
       <r>   21.7149    0.0000 </r>
       <r>   21.8768    0.0000 </r>
       <r>   22.7838    0.0000 </r>
      </set>
      <set comment="kpoint 61">
       <r>   -4.4238    1.0000 </r>
       <r>    0.3680    1.0000 </r>
       <r>    2.0818    1.0000 </r>
       <r>    4.3319    1.0000 </r>
       <r>    8.0904    0.0000 </r>
       <r>    9.9961    0.0000 </r>
       <r>   10.2752    0.0000 </r>
       <r>   11.3485    0.0000 </r>
       <r>   11.8277    0.0000 </r>
       <r>   15.4499    0.0000 </r>
       <r>   17.4779    0.0000 </r>
       <r>   17.9309    0.0000 </r>
       <r>   18.6995    0.0000 </r>
       <r>   21.3572    0.0000 </r>
       <r>   22.3779    0.0000 </r>
       <r>   22.7578    0.0000 </r>
      </set>
      <set comment="kpoint 62">
       <r>   -4.7491    1.0000 </r>
       <r>    1.2107    1.0000 </r>
       <r>    3.3724    1.0000 </r>
       <r>    3.3724    1.0000 </r>
       <r>    6.4604    0.0000 </r>
       <r>    8.0534    0.0000 </r>
       <r>   11.9010    0.0000 </r>
       <r>   11.9010    0.0000 </r>
       <r>   14.1366    0.0000 </r>
       <r>   14.8461    0.0000 </r>
       <r>   17.6152    0.0000 </r>
       <r>   18.7589    0.0000 </r>
       <r>   18.7589    0.0000 </r>
       <r>   19.7786    0.0000 </r>
       <r>   21.8121    0.0000 </r>
       <r>   21.8121    0.0000 </r>
      </set>
      <set comment="kpoint 63">
       <r>   -4.4289    1.0000 </r>
       <r>    0.6494    1.0000 </r>
       <r>    3.0850    1.0000 </r>
       <r>    3.2268    1.0000 </r>
       <r>    6.5005    0.0000 </r>
       <r>    7.8078    0.0000 </r>
       <r>   12.1740    0.0000 </r>
       <r>   12.2707    0.0000 </r>
       <r>   14.9818    0.0000 </r>
       <r>   15.2894    0.0000 </r>
       <r>   17.7868    0.0000 </r>
       <r>   18.7070    0.0000 </r>
       <r>   19.0467    0.0000 </r>
       <r>   20.1601    0.0000 </r>
       <r>   21.2161    0.0000 </r>
       <r>   21.8396    0.0000 </r>
      </set>
      <set comment="kpoint 64">
       <r>   -4.0429    1.0000 </r>
       <r>    0.0440    1.0000 </r>
       <r>    2.6374    1.0000 </r>
       <r>    3.1497    1.0000 </r>
       <r>    6.6915    0.0000 </r>
       <r>    7.9550    0.0000 </r>
       <r>   12.1494    0.0000 </r>
       <r>   12.3366    0.0000 </r>
       <r>   16.0303    0.0000 </r>
       <r>   16.1005    0.0000 </r>
       <r>   17.2120    0.0000 </r>
       <r>   17.8613    0.0000 </r>
       <r>   19.7158    0.0000 </r>
       <r>   19.9485    0.0000 </r>
       <r>   21.3581    0.0000 </r>
       <r>   22.7920    0.0000 </r>
      </set>
      <set comment="kpoint 65">
       <r>   -3.6155    1.0000 </r>
       <r>   -0.5477    1.0000 </r>
       <r>    2.1676    1.0000 </r>
       <r>    3.1435    1.0000 </r>
       <r>    6.7953    0.0000 </r>
       <r>    8.5720    0.0000 </r>
       <r>   12.0349    0.0000 </r>
       <r>   12.2104    0.0000 </r>
       <r>   16.2384    0.0000 </r>
       <r>   16.5880    0.0000 </r>
       <r>   17.0503    0.0000 </r>
       <r>   17.3721    0.0000 </r>
       <r>   19.2983    0.0000 </r>
       <r>   20.9748    0.0000 </r>
       <r>   21.8715    0.0000 </r>
       <r>   23.5124    0.0000 </r>
      </set>
      <set comment="kpoint 66">
       <r>   -3.2119    1.0000 </r>
       <r>   -1.0468    1.0000 </r>
       <r>    1.7667    1.0000 </r>
       <r>    3.2082    1.0000 </r>
       <r>    6.8807    0.0000 </r>
       <r>    9.4836    0.0000 </r>
       <r>   11.9151    0.0000 </r>
       <r>   12.0095    0.0000 </r>
       <r>   15.1722    0.0000 </r>
       <r>   15.3318    0.0000 </r>
       <r>   18.1802    0.0000 </r>
       <r>   18.5546    0.0000 </r>
       <r>   19.0284    0.0000 </r>
       <r>   22.1029    0.0000 </r>
       <r>   22.2415    0.0000 </r>
       <r>   23.7474    0.0000 </r>
      </set>
      <set comment="kpoint 67">
       <r>   -3.0122    1.0000 </r>
       <r>   -1.2707    1.0000 </r>
       <r>    1.4829    1.0000 </r>
       <r>    3.3409    1.0000 </r>
       <r>    7.0217    0.0000 </r>
       <r>   10.5416    0.0000 </r>
       <r>   11.7845    0.0000 </r>
       <r>   11.8346    0.0000 </r>
       <r>   14.0352    0.0000 </r>
       <r>   14.1451    0.0000 </r>
       <r>   18.9217    0.0000 </r>
       <r>   19.4227    0.0000 </r>
       <r>   19.6697    0.0000 </r>
       <r>   22.3078    0.0000 </r>
       <r>   22.4196    0.0000 </r>
       <r>   23.0985    0.0000 </r>
      </set>
      <set comment="kpoint 68">
       <r>   -3.1925    1.0000 </r>
       <r>   -1.0586    1.0000 </r>
       <r>    1.3555    1.0000 </r>
       <r>    3.5356    1.0000 </r>
       <r>    7.2346    0.0000 </r>
       <r>   11.4415    0.0000 </r>
       <r>   11.5099    0.0000 </r>
       <r>   12.0227    0.0000 </r>
       <r>   12.9396    0.0000 </r>
       <r>   13.1399    0.0000 </r>
       <r>   18.9423    0.0000 </r>
       <r>   20.3595    0.0000 </r>
       <r>   20.6895    0.0000 </r>
       <r>   20.9624    0.0000 </r>
       <r>   22.0888    0.0000 </r>
       <r>   22.4792    0.0000 </r>
      </set>
      <set comment="kpoint 69">
       <r>   -3.5820    1.0000 </r>
       <r>   -0.6302    1.0000 </r>
       <r>    1.4430    1.0000 </r>
       <r>    3.7815    1.0000 </r>
       <r>    7.5104    0.0000 </r>
       <r>   11.0564    0.0000 </r>
       <r>   11.3352    0.0000 </r>
       <r>   12.0735    0.0000 </r>
       <r>   12.4869    0.0000 </r>
       <r>   13.1496    0.0000 </r>
       <r>   18.8474    0.0000 </r>
       <r>   19.4180    0.0000 </r>
       <r>   20.3659    0.0000 </r>
[...]
       <r>   19.5351    0.0000 </r>
       <r>   19.9799    0.0000 </r>
       <r>   20.5335    0.0000 </r>
       <r>   21.8591    0.0000 </r>
       <r>   23.4384    0.0000 </r>
      </set>
      <set comment="kpoint 160">
       <r>   -2.7127    1.0000 </r>
       <r>   -1.4060    1.0000 </r>
       <r>    1.6267    1.0000 </r>
       <r>    2.3377    1.0000 </r>
       <r>    8.6669    0.0000 </r>
       <r>    9.5613    0.0000 </r>
       <r>   10.3014    0.0000 </r>
       <r>   12.2399    0.0000 </r>
       <r>   14.3985    0.0000 </r>
       <r>   16.3623    0.0000 </r>
       <r>   17.6101    0.0000 </r>
       <r>   19.5368    0.0000 </r>
       <r>   20.4647    0.0000 </r>
       <r>   21.7342    0.0000 </r>
       <r>   22.2930    0.0000 </r>
       <r>   23.6206    0.0000 </r>
      </set>
      <set comment="kpoint 161">
       <r>   -2.6021    1.0000 </r>
       <r>   -1.5106    1.0000 </r>
       <r>    1.5008    1.0000 </r>
       <r>    2.3690    1.0000 </r>
       <r>    8.8401    0.0000 </r>
       <r>    9.9237    0.0000 </r>
       <r>   10.7491    0.0000 </r>
       <r>   11.1534    0.0000 </r>
       <r>   14.3907    0.0000 </r>
       <r>   16.1223    0.0000 </r>
       <r>   17.8289    0.0000 </r>
       <r>   19.6229    0.0000 </r>
       <r>   20.5078    0.0000 </r>
       <r>   22.1468    0.0000 </r>
       <r>   22.8401    0.0000 </r>
       <r>   23.6014    0.0000 </r>
      </set>
      <set comment="kpoint 162">
       <r>   -2.8993    1.0000 </r>
       <r>   -1.2192    1.0000 </r>
       <r>    1.5030    1.0000 </r>
       <r>    2.5561    1.0000 </r>
       <r>    9.0617    0.0000 </r>
       <r>    9.6248    0.0000 </r>
       <r>   10.1394    0.0000 </r>
       <r>   12.0691    0.0000 </r>
       <r>   14.0070    0.0000 </r>
       <r>   15.5043    0.0000 </r>
       <r>   18.4898    0.0000 </r>
       <r>   19.7612    0.0000 </r>
       <r>   20.0934    0.0000 </r>
       <r>   21.6465    0.0000 </r>
       <r>   21.8850    0.0000 </r>
       <r>   24.1584    0.0000 </r>
      </set>
      <set comment="kpoint 163">
       <r>   -2.4178    1.0000 </r>
       <r>   -1.7139    1.0000 </r>
       <r>    1.8651    1.0000 </r>
       <r>    2.0923    1.0000 </r>
       <r>    8.4033    0.0000 </r>
       <r>    8.5422    0.0000 </r>
       <r>   11.4032    0.0000 </r>
       <r>   12.4163    0.0000 </r>
       <r>   15.2621    0.0000 </r>
       <r>   16.2909    0.0000 </r>
       <r>   17.7638    0.0000 </r>
       <r>   18.7187    0.0000 </r>
       <r>   21.2052    0.0000 </r>
       <r>   21.8329    0.0000 </r>
       <r>   22.1932    0.0000 </r>
       <r>   23.1309    0.0000 </r>
      </set>
      <set comment="kpoint 164">
       <r>   -2.2542    1.0000 </r>
       <r>   -1.8456    1.0000 </r>
       <r>    1.6443    1.0000 </r>
       <r>    2.1187    1.0000 </r>
       <r>    8.6228    0.0000 </r>
       <r>    9.5104    0.0000 </r>
       <r>   11.1512    0.0000 </r>
       <r>   11.2560    0.0000 </r>
       <r>   15.3030    0.0000 </r>
       <r>   16.0534    0.0000 </r>
       <r>   17.9649    0.0000 </r>
       <r>   18.8057    0.0000 </r>
       <r>   21.3462    0.0000 </r>
       <r>   22.0696    0.0000 </r>
       <r>   22.9361    0.0000 </r>
       <r>   23.0692    0.0000 </r>
      </set>
      <set comment="kpoint 165">
       <r>   -2.3214    1.0000 </r>
       <r>   -1.7568    1.0000 </r>
       <r>    1.6559    1.0000 </r>
       <r>    2.0119    1.0000 </r>
       <r>    9.5843    0.0000 </r>
       <r>    9.6118    0.0000 </r>
       <r>   10.2027    0.0000 </r>
       <r>   11.0185    0.0000 </r>
       <r>   15.2768    0.0000 </r>
       <r>   16.1889    0.0000 </r>
       <r>   17.8829    0.0000 </r>
       <r>   18.8062    0.0000 </r>
       <r>   21.1987    0.0000 </r>
       <r>   22.0844    0.0000 </r>
       <r>   23.1795    0.0000 </r>
       <r>   23.4445    0.0000 </r>
      </set>
     </set>
    </set>
   </array>
  </eigenvalues>
  <separator name="orbital magnetization" >
   <v name="MAGDIPOLOUT">      0.00000000      0.00000000      0.00000000</v>
  </separator>
  <dos>
   <i name="efermi">      5.81218859 </i>
   <total>
    <array>
     <dimension dim="1">gridpoints</dimension>
     <dimension dim="2">spin</dimension>
     <field>energy</field>
     <field>total</field>
     <field>integrated</field>
     <set>
      <set comment="spin 1">
       <r>    -8.1919     0.0000     0.0000 </r>
       <r>    -8.0640     0.0000     0.0000 </r>
       <r>    -7.9362     0.0000     0.0000 </r>
       <r>    -7.8083     0.0000     0.0000 </r>
       <r>    -7.6804     0.0000     0.0000 </r>
       <r>    -7.5526     0.0000     0.0000 </r>
       <r>    -7.4247     0.0000     0.0000 </r>
       <r>    -7.2969     0.0000     0.0000 </r>
       <r>    -7.1690     0.0000     0.0000 </r>
       <r>    -7.0411     0.0000     0.0000 </r>
       <r>    -6.9133     0.0000     0.0000 </r>
       <r>    -6.7854     0.0000     0.0000 </r>
       <r>    -6.6576     0.0000     0.0000 </r>
       <r>    -6.5297     0.0002     0.0000 </r>
       <r>    -6.4018     0.0024     0.0003 </r>
       <r>    -6.2740     0.0144     0.0022 </r>
       <r>    -6.1461     0.0498     0.0085 </r>
       <r>    -6.0183     0.1076     0.0223 </r>
       <r>    -5.8904     0.1676     0.0437 </r>
       <r>    -5.7625     0.2171     0.0715 </r>
       <r>    -5.6347     0.2577     0.1044 </r>
       <r>    -5.5068     0.2927     0.1419 </r>
       <r>    -5.3789     0.3272     0.1837 </r>
       <r>    -5.2511     0.3556     0.2292 </r>
       <r>    -5.1232     0.3880     0.2788 </r>
       <r>    -4.9954     0.4201     0.3325 </r>
       <r>    -4.8675     0.4425     0.3891 </r>
       <r>    -4.7396     0.4818     0.4507 </r>
       <r>    -4.6118     0.5161     0.5167 </r>
       <r>    -4.4839     0.5366     0.5853 </r>
       <r>    -4.3561     0.5906     0.6608 </r>
       <r>    -4.2282     0.6448     0.7432 </r>
       <r>    -4.1003     0.6881     0.8312 </r>
       <r>    -3.9725     0.7814     0.9311 </r>
       <r>    -3.8446     0.8578     1.0408 </r>
       <r>    -3.7168     0.8471     1.1491 </r>
       <r>    -3.5889     0.8246     1.2545 </r>
       <r>    -3.4610     0.7940     1.3561 </r>
       <r>    -3.3332     0.7349     1.4500 </r>
       <r>    -3.2053     0.6891     1.5381 </r>
       <r>    -3.0775     0.6412     1.6201 </r>
       <r>    -2.9496     0.5965     1.6964 </r>
       <r>    -2.8217     0.5462     1.7662 </r>
       <r>    -2.6939     0.4754     1.8270 </r>
       <r>    -2.5660     0.4354     1.8827 </r>
       <r>    -2.4382     0.3674     1.9297 </r>
       <r>    -2.3103     0.2631     1.9633 </r>
       <r>    -2.1824     0.1991     1.9888 </r>
       <r>    -2.0546     0.1584     2.0090 </r>
       <r>    -1.9267     0.1506     2.0283 </r>
       <r>    -1.7989     0.2222     2.0567 </r>
       <r>    -1.6710     0.3328     2.0992 </r>
       <r>    -1.5431     0.4019     2.1506 </r>
       <r>    -1.4153     0.5170     2.2167 </r>
       <r>    -1.2874     0.7851     2.3171 </r>
       <r>    -1.1596     1.0809     2.4553 </r>
       <r>    -1.0317     1.1866     2.6070 </r>
       <r>    -0.9038     1.0665     2.7434 </r>
       <r>    -0.7760     0.8888     2.8570 </r>
       <r>    -0.6481     0.7387     2.9515 </r>
       <r>    -0.5203     0.6346     3.0326 </r>
       <r>    -0.3924     0.5811     3.1069 </r>
       <r>    -0.2645     0.5458     3.1767 </r>
       <r>    -0.1367     0.4879     3.2391 </r>
       <r>    -0.0088     0.4290     3.2939 </r>
       <r>     0.1190     0.4165     3.3472 </r>
       <r>     0.2469     0.3984     3.3981 </r>
       <r>     0.3748     0.3596     3.4441 </r>
       <r>     0.5026     0.3218     3.4853 </r>
       <r>     0.6305     0.3012     3.5238 </r>
       <r>     0.7583     0.2925     3.5612 </r>
       <r>     0.8862     0.2869     3.5979 </r>
       <r>     1.0141     0.2571     3.6307 </r>
       <r>     1.1419     0.2550     3.6633 </r>
       <r>     1.2698     0.3799     3.7119 </r>
       <r>     1.3976     0.6303     3.7925 </r>
       <r>     1.5255     0.9291     3.9113 </r>
       <r>     1.6534     1.1083     4.0530 </r>
       <r>     1.7812     1.1337     4.1980 </r>
       <r>     1.9091     1.1008     4.3387 </r>
       <r>     2.0369     1.0665     4.4751 </r>
       <r>     2.1648     1.0899     4.6144 </r>
       <r>     2.2927     1.1466     4.7610 </r>
       <r>     2.4205     1.1695     4.9106 </r>
       <r>     2.5484     1.1812     5.0616 </r>
       <r>     2.6762     1.3050     5.2285 </r>
       <r>     2.8041     1.5087     5.4213 </r>
       <r>     2.9320     1.5737     5.6226 </r>
       <r>     3.0598     1.5030     5.8147 </r>
       <r>     3.1877     1.4737     6.0032 </r>
       <r>     3.3155     1.4248     6.1853 </r>
       <r>     3.4434     1.3929     6.3634 </r>
       <r>     3.5713     1.4335     6.5467 </r>
       <r>     3.6991     1.3873     6.7241 </r>
       <r>     3.8270     1.2770     6.8874 </r>
       <r>     3.9548     1.2422     7.0462 </r>
       <r>     4.0827     1.2434     7.2052 </r>
       <r>     4.2106     1.1913     7.3575 </r>
       <r>     4.3384     1.0721     7.4946 </r>
       <r>     4.4663     0.9113     7.6111 </r>
       <r>     4.5942     0.7421     7.7060 </r>
       <r>     4.7220     0.5872     7.7811 </r>
       <r>     4.8499     0.4675     7.8408 </r>
       <r>     4.9777     0.3939     7.8912 </r>
       <r>     5.1056     0.3334     7.9338 </r>
       <r>     5.2335     0.2465     7.9654 </r>
       <r>     5.3613     0.1538     7.9850 </r>
       <r>     5.4892     0.0797     7.9952 </r>
       <r>     5.6170     0.0299     7.9990 </r>
       <r>     5.7449     0.0068     7.9999 </r>
       <r>     5.8728     0.0015     8.0001 </r>
       <r>     6.0006     0.0061     8.0009 </r>
       <r>     6.1285     0.0294     8.0046 </r>
       <r>     6.2563     0.0876     8.0158 </r>
       <r>     6.3842     0.1784     8.0386 </r>
       <r>     6.5121     0.2824     8.0747 </r>
       <r>     6.6399     0.3904     8.1246 </r>
       <r>     6.7678     0.4984     8.1884 </r>
       <r>     6.8956     0.5648     8.2606 </r>
       <r>     7.0235     0.6095     8.3385 </r>
       <r>     7.1514     0.7162     8.4301 </r>
       <r>     7.2792     0.8857     8.5433 </r>
       <r>     7.4071     1.0607     8.6789 </r>
       <r>     7.5349     1.2395     8.8374 </r>
       <r>     7.6628     1.4280     9.0200 </r>
       <r>     7.7907     1.5707     9.2209 </r>
       <r>     7.9185     1.5658     9.4211 </r>
       <r>     8.0464     1.3833     9.5979 </r>
       <r>     8.1742     1.2288     9.7550 </r>
       <r>     8.3021     1.2541     9.9154 </r>
       <r>     8.4300     1.2911    10.0805 </r>
       <r>     8.5578     1.2423    10.2393 </r>
       <r>     8.6857     1.3787    10.4156 </r>
       <r>     8.8135     1.7352    10.6375 </r>
       <r>     8.9414     1.9396    10.8855 </r>
       <r>     9.0693     1.8490    11.1219 </r>
       <r>     9.1971     1.6923    11.3383 </r>
       <r>     9.3250     1.6250    11.5460 </r>
       <r>     9.4528     1.5592    11.7454 </r>
       <r>     9.5807     1.4654    11.9328 </r>
       <r>     9.7086     1.3257    12.1023 </r>
       <r>     9.8364     1.2040    12.2562 </r>
       <r>     9.9643     1.2528    12.4164 </r>
       <r>    10.0921     1.3745    12.5921 </r>
       <r>    10.2200     1.3840    12.7691 </r>
       <r>    10.3479     1.3000    12.9353 </r>
       <r>    10.4757     1.2119    13.0903 </r>
       <r>    10.6036     1.1306    13.2348 </r>
       <r>    10.7314     1.0760    13.3724 </r>
       <r>    10.8593     1.1867    13.5241 </r>
       <r>    10.9872     1.3878    13.7016 </r>
       <r>    11.1150     1.4382    13.8855 </r>
       <r>    11.2429     1.2784    14.0489 </r>
       <r>    11.3707     1.0030    14.1772 </r>
       <r>    11.4986     0.7971    14.2791 </r>
       <r>    11.6265     0.7437    14.3742 </r>
       <r>    11.7543     0.8380    14.4813 </r>
       <r>    11.8822     1.0834    14.6199 </r>
       <r>    12.0100     1.3875    14.7973 </r>
       <r>    12.1379     1.5891    15.0004 </r>
       <r>    12.2658     1.5315    15.1963 </r>
       <r>    12.3936     1.2485    15.3559 </r>
       <r>    12.5215     1.0033    15.4842 </r>
       <r>    12.6493     0.9177    15.6015 </r>
       <r>    12.7772     0.9068    15.7175 </r>
       <r>    12.9051     0.9514    15.8391 </r>
       <r>    13.0329     1.1444    15.9854 </r>
       <r>    13.1608     1.5014    16.1774 </r>
       <r>    13.2886     1.7572    16.4021 </r>
       <r>    13.4165     1.6349    16.6111 </r>
       <r>    13.5444     1.2807    16.7749 </r>
       <r>    13.6722     1.0014    16.9029 </r>
       <r>    13.8001     0.9093    17.0192 </r>
       <r>    13.9279     0.9992    17.1469 </r>
       <r>    14.0558     1.1350    17.2921 </r>
       <r>    14.1837     1.2221    17.4483 </r>
       <r>    14.3115     1.4198    17.6298 </r>
       <r>    14.4394     1.6419    17.8398 </r>
       <r>    14.5673     1.5601    18.0393 </r>
       <r>    14.6951     1.3138    18.2072 </r>
       <r>    14.8230     1.2479    18.3668 </r>
       <r>    14.9508     1.3165    18.5351 </r>
       <r>    15.0787     1.3334    18.7056 </r>
       <r>    15.2066     1.3477    18.8779 </r>
       <r>    15.3344     1.4274    19.0604 </r>
       <r>    15.4623     1.4186    19.2418 </r>
       <r>    15.5901     1.2891    19.4066 </r>
       <r>    15.7180     1.2310    19.5640 </r>
       <r>    15.8459     1.2279    19.7210 </r>
       <r>    15.9737     1.1973    19.8741 </r>
       <r>    16.1016     1.2575    20.0349 </r>
       <r>    16.2294     1.3359    20.2057 </r>
       <r>    16.3573     1.3029    20.3723 </r>
       <r>    16.4852     1.2831    20.5364 </r>
       <r>    16.6130     1.2529    20.6965 </r>
       <r>    16.7409     1.1391    20.8422 </r>
       <r>    16.8687     1.1194    20.9853 </r>
       <r>    16.9966     1.2447    21.1445 </r>
       <r>    17.1245     1.3697    21.3196 </r>
       <r>    17.2523     1.4805    21.5089 </r>
       <r>    17.3802     1.5739    21.7101 </r>
       <r>    17.5080     1.5888    21.9133 </r>
       <r>    17.6359     1.5652    22.1134 </r>
       <r>    17.7638     1.5989    22.3178 </r>
       <r>    17.8916     1.6754    22.5321 </r>
       <r>    18.0195     1.6535    22.7435 </r>
       <r>    18.1473     1.4954    22.9347 </r>
       <r>    18.2752     1.4009    23.1138 </r>
       <r>    18.4031     1.5207    23.3082 </r>
       <r>    18.5309     1.6820    23.5233 </r>
       <r>    18.6588     1.6854    23.7388 </r>
       <r>    18.7866     1.5782    23.9406 </r>
       <r>    18.9145     1.5179    24.1347 </r>
       <r>    19.0424     1.5942    24.3385 </r>
       <r>    19.1702     1.7261    24.5592 </r>
       <r>    19.2981     1.8171    24.7915 </r>
       <r>    19.4259     1.8297    25.0255 </r>
       <r>    19.5538     1.7344    25.2472 </r>
       <r>    19.6817     1.5810    25.4494 </r>
       <r>    19.8095     1.3999    25.6284 </r>
       <r>    19.9374     1.3138    25.7964 </r>
       <r>    20.0652     1.3558    25.9697 </r>
       <r>    20.1931     1.3915    26.1476 </r>
       <r>    20.3210     1.4204    26.3292 </r>
       <r>    20.4488     1.5564    26.5282 </r>
       <r>    20.5767     1.7387    26.7506 </r>
       <r>    20.7045     1.7114    26.9694 </r>
       <r>    20.8324     1.5118    27.1627 </r>
       <r>    20.9603     1.4061    27.3424 </r>
       <r>    21.0881     1.4042    27.5220 </r>
       <r>    21.2160     1.3216    27.6910 </r>
       <r>    21.3438     1.2270    27.8479 </r>
       <r>    21.4717     1.2745    28.0108 </r>
       <r>    21.5996     1.3729    28.1864 </r>
       <r>    21.7274     1.4535    28.3722 </r>
       <r>    21.8553     1.5851    28.5749 </r>
       <r>    21.9831     1.6774    28.7894 </r>
       <r>    22.1110     1.6290    28.9976 </r>
       <r>    22.2389     1.5375    29.1942 </r>
       <r>    22.3667     1.5661    29.3944 </r>
       <r>    22.4946     1.5770    29.5961 </r>
       <r>    22.6224     1.4196    29.7776 </r>
       <r>    22.7503     1.3708    29.9529 </r>
       <r>    22.8782     1.4773    30.1418 </r>
       <r>    23.0060     1.5518    30.3402 </r>
       <r>    23.1339     1.7464    30.5635 </r>
       <r>    23.2617     1.8963    30.8059 </r>
       <r>    23.3896     1.6954    31.0227 </r>
       <r>    23.5175     1.4638    31.2099 </r>
       <r>    23.6453     1.3450    31.3818 </r>
       <r>    23.7732     1.1331    31.5267 </r>
       <r>    23.9010     0.7892    31.6276 </r>
       <r>    24.0289     0.4590    31.6863 </r>
       <r>    24.1568     0.3170    31.7268 </r>
       <r>    24.2846     0.3052    31.7659 </r>
       <r>    24.4125     0.2579    31.7988 </r>
       <r>    24.5404     0.2403    31.8296 </r>
       <r>    24.6682     0.2689    31.8639 </r>
       <r>    24.7961     0.2400    31.8946 </r>
       <r>    24.9239     0.1640    31.9156 </r>
       <r>    25.0518     0.1216    31.9312 </r>
       <r>    25.1797     0.1264    31.9473 </r>
       <r>    25.3075     0.1086    31.9612 </r>
       <r>    25.4354     0.0551    31.9683 </r>
       <r>    25.5632     0.0180    31.9706 </r>
       <r>    25.6911     0.0114    31.9720 </r>
       <r>    25.8190     0.0138    31.9738 </r>
       <r>    25.9468     0.0124    31.9754 </r>
       <r>    26.0747     0.0139    31.9771 </r>
       <r>    26.2025     0.0290    31.9808 </r>
       <r>    26.3304     0.0446    31.9865 </r>
       <r>    26.4583     0.0372    31.9913 </r>
       <r>    26.5861     0.0163    31.9934 </r>
       <r>    26.7140     0.0036    31.9938 </r>
       <r>    26.8418     0.0004    31.9939 </r>
       <r>    26.9697     0.0001    31.9939 </r>
       <r>    27.0976     0.0007    31.9940 </r>
       <r>    27.2254     0.0032    31.9944 </r>
       <r>    27.3533     0.0070    31.9953 </r>
       <r>    27.4811     0.0096    31.9965 </r>
       <r>    27.6090     0.0107    31.9979 </r>
       <r>    27.7369     0.0086    31.9990 </r>
       <r>    27.8647     0.0038    31.9995 </r>
       <r>    27.9926     0.0011    31.9996 </r>
       <r>    28.1204     0.0009    31.9997 </r>
       <r>    28.2483     0.0011    31.9999 </r>
       <r>    28.3762     0.0007    32.0000 </r>
       <r>    28.5040     0.0002    32.0000 </r>
       <r>    28.6319     0.0000    32.0000 </r>
       <r>    28.7597     0.0000    32.0000 </r>
       <r>    28.8876     0.0000    32.0000 </r>
       <r>    29.0155     0.0000    32.0000 </r>
       <r>    29.1433     0.0000    32.0000 </r>
       <r>    29.2712     0.0000    32.0000 </r>
       <r>    29.3990     0.0000    32.0000 </r>
       <r>    29.5269     0.0000    32.0000 </r>
       <r>    29.6548     0.0000    32.0000 </r>
       <r>    29.7826     0.0000    32.0000 </r>
       <r>    29.9105     0.0000    32.0000 </r>
       <r>    30.0383     0.0000    32.0000 </r>
       <r>    30.1662     0.0000    32.0000 </r>
      </set>
     </set>
    </array>
   </total>
  </dos>
 </calculation>
 <structure name="finalpos" >
  <crystal>
   <varray name="basis" >
    <v>       0.00000000       2.74682114       2.74682114 </v>
    <v>       2.74682114       0.00000000       2.74682114 </v>
    <v>       2.74682114       2.74682114       0.00000000 </v>
   </varray>
   <i name="volume">     41.44967579 </i>
   <varray name="rec_basis" >
    <v>      -0.18202860       0.18202860       0.18202860 </v>
    <v>       0.18202860      -0.18202860       0.18202860 </v>
    <v>       0.18202860       0.18202860      -0.18202860 </v>
   </varray>
  </crystal>
  <varray name="positions" >
   <v>       0.75000000       0.75000000       0.75000000 </v>
   <v>       0.50000000       0.50000000       0.50000000 </v>
  </varray>
 </structure>
</modeling>
