datafile (written by JARVIS-FF) 

4 	 atoms 
1  atom types
0.0 4.0389296932  xlo xhi
0.0 4.0389296931  ylo yhi
0.0 4.0389296931  zlo zhi
0E-10 0E-10 0E-10  xy xz yz


Atoms 

     1   1 0.000000 0E-10 0E-10 0E-10
     2   1 0.000000 0E-10 2.0194648466 2.0194648466
     3   1 0.000000 2.0194648466 0E-10 2.0194648466
     4   1 0.000000 2.0194648466 2.0194648466 0E-10
