LAMMPS (13 Jan 2016)
Reading data file ...
  triclinic box = (0 0 0) to (4.03893 4.03893 4.03893) with tilt (0 0 0)
  1 by 1 by 1 MPI processor grid
  reading atoms ...
  4 atoms
Neighbor list info ...
  1 neighbor list requests
  update every 1 steps, delay 0 steps, check yes
  max neighbors/atom: 2000, page size: 100000
  master list distance cutoff = 7.72488
  ghost atom cutoff = 7.72488
Setting up cg style minimization ...
  Unit style: metal
Memory usage per processor = 3.31879 Mbytes
Step Temp Press CPU Pxx Pyy Pzz Pxy Pxz Pyz KinEng PotEng TotEng Volume Lx Ly Lz Atoms 
       0            0    6601.9048            0    6601.9048    6601.9048    6601.9048 -1.7822493e-12 -5.1463766e-12 -1.012402e-12            0   -13.438889   -13.438889    65.886871    4.0389297    4.0389297    4.0389297        4 
       1            0    4164.5773 3.9815903e-05    4164.5773    4164.5773    4164.5773 -1.429942e-12 -4.4580544e-12 -7.6543953e-12            0   -13.439553   -13.439553    66.084729    4.0429686    4.0429686    4.0429686        4 
       2            0    1760.3222 8.9883804e-05    1760.3222    1760.3222    1760.3222 -1.0482831e-12 1.3208367e-12 -2.2642915e-12            0   -13.439919   -13.439919    66.282983    4.0470076    4.0470076    4.0470076        4 
       3            0   -2.1771454 0.00016498566    -2.177151   -2.1771426   -2.1771426 1.5689374e-12 1.1066239e-11 8.576858e-12            0       -13.44       -13.44    66.430306    4.0500037    4.0500037    4.0500037        4 
       4            0 -0.00087293488 0.00023984909 -0.00087717572 -0.00087081444 -0.00087081448 1.3179111e-12 2.0500839e-12 2.2174377e-12            0       -13.44       -13.44    66.430123         4.05         4.05         4.05        4 
       5            0  6.96795e-08 0.00031304359 -3.1567971e-06 1.6829294e-06 1.6829062e-06 1.0459612e-14 1.9245686e-12 1.7153763e-12            0       -13.44       -13.44    66.430123         4.05         4.05         4.05        4 
       6            0 -8.5745108e-10 0.0003888607 2.8080169e-06 -1.4053494e-06 -1.4052398e-06 2.5730645e-12 3.7863794e-12 1.7697663e-11            0       -13.44       -13.44    66.430123         4.05         4.05         4.05        4 
       7            0 -8.9438048e-10 0.00048899651 -9.1525786e-10 -8.3070236e-10 -9.3718121e-10 2.1651396e-12 -9.2044583e-13 8.3676894e-13            0       -13.44       -13.44    66.430123         4.05         4.05         4.05        4 
Loop time of 0.000504017 on 1 procs for 7 steps with 4 atoms

793.6% CPU use with 1 MPI tasks x no OpenMP threads

Minimization stats:
  Stopping criterion = force tolerance
  Energy initial, next-to-last, final = 
        -13.4388888172     -13.4400000916     -13.4400000916
  Force two-norm initial, final = 0.470239 6.41424e-14
  Force max component initial, final = 0.271492 3.87516e-14
  Final line search alpha, max atom move = 1 3.87516e-14
  Iterations, force evaluations = 7 12

MPI task timing breakdown:
Section |  min time  |  avg time  |  max time  |%varavg| %total
---------------------------------------------------------------
Pair    | 0.00024939 | 0.00024939 | 0.00024939 |   0.0 | 49.48
Neigh   | 0          | 0          | 0          |   0.0 |  0.00
Comm    | 3.171e-05  | 3.171e-05  | 3.171e-05  |   0.0 |  6.29
Output  | 0.00010395 | 0.00010395 | 0.00010395 |   0.0 | 20.62
Modify  | 0          | 0          | 0          |   0.0 |  0.00
Other   |            | 0.000119   |            |       | 23.60

Nlocal:    4 ave 4 max 4 min
Histogram: 1 0 0 0 0 0 0 0 0 0
Nghost:    360 ave 360 max 360 min
Histogram: 1 0 0 0 0 0 0 0 0 0
Neighs:    268 ave 268 max 268 min
Histogram: 1 0 0 0 0 0 0 0 0 0

Total # of neighbors = 268
Ave neighs/atom = 67
Neighbor list builds = 0
Dangerous builds = 0
Setting up cg style minimization ...
  Unit style: metal
Memory usage per processor = 3.31879 Mbytes
Step Temp Press CPU Pxx Pyy Pzz Pxy Pxz Pyz KinEng PotEng TotEng Volume Lx Ly Lz Atoms 
       7            0 -8.2264149e-10            0 -8.6869167e-10 -7.3267488e-10 -8.6655791e-10 1.4957245e-12 -1.347198e-11 2.585616e-11            0       -13.44       -13.44    66.430123         4.05         4.05         4.05        4 
       8            0 -8.9438048e-10 6.9856644e-05 -9.1525786e-10 -8.3070236e-10 -9.3718121e-10 2.1651396e-12 -9.2044583e-13 8.3676894e-13            0       -13.44       -13.44    66.430123         4.05         4.05         4.05        4 
Loop time of 8.39233e-05 on 1 procs for 1 steps with 4 atoms

0.0% CPU use with 1 MPI tasks x no OpenMP threads

Minimization stats:
  Stopping criterion = quadratic factors are zero
  Energy initial, next-to-last, final = 
        -13.4400000916     -13.4400000916     -13.4400000916
  Force two-norm initial, final = 2.8951e-15 6.8319e-16
  Force max component initial, final = 2.31065e-15 4.23273e-16
  Final line search alpha, max atom move = 1 4.23273e-16
  Iterations, force evaluations = 1 2

MPI task timing breakdown:
Section |  min time  |  avg time  |  max time  |%varavg| %total
---------------------------------------------------------------
Pair    | 5.6982e-05 | 5.6982e-05 | 5.6982e-05 |   0.0 | 67.90
Neigh   | 0          | 0          | 0          |   0.0 |  0.00
Comm    | 7.1526e-06 | 7.1526e-06 | 7.1526e-06 |   0.0 |  8.52
Output  | 0          | 0          | 0          |   0.0 |  0.00
Modify  | 0          | 0          | 0          |   0.0 |  0.00
Other   |            | 1.979e-05  |            |       | 23.58

Nlocal:    4 ave 4 max 4 min
Histogram: 1 0 0 0 0 0 0 0 0 0
Nghost:    360 ave 360 max 360 min
Histogram: 1 0 0 0 0 0 0 0 0 0
Neighs:    268 ave 268 max 268 min
Histogram: 1 0 0 0 0 0 0 0 0 0

Total # of neighbors = 268
Ave neighs/atom = 67
Neighbor list builds = 0
Dangerous builds = 0
System init for write_restart ...
System init for write_data ...
Reading restart file ...
  restart file = 13 Jan 2016, LAMMPS = 13 Jan 2016
  triclinic box = (-0.00553514 -0.00553514 -0.00553514) to (4.04446 4.04446 4.04446) with tilt (0 0 0)
  1 by 1 by 1 MPI processor grid
  4 atoms
Changing box ...
  triclinic box = (-0.00553514 -0.00553514 -0.00553514) to (4.04446 4.04446 4.04446) with tilt (0 0 0)
Neighbor list info ...
  1 neighbor list requests
  update every 1 steps, delay 0 steps, check yes
  max neighbors/atom: 2000, page size: 100000
  master list distance cutoff = 7.72488
  ghost atom cutoff = 7.72488
Setting up cg style minimization ...
  Unit style: metal
Memory usage per processor = 3.31879 Mbytes
Step Temp Press CPU Pxx Pyy Pzz Pxy Pxz Pyz KinEng PotEng TotEng Volume Lx Ly Lz Atoms 
       8            0   0.79016912            0    1.1681595   0.60117394   0.60117394 2.990406e-11 5.1042956e-12 3.7821994e-11            0       -13.44       -13.44    66.430057    4.0499959         4.05         4.05        4 
       9            0   0.79016912 7.390976e-05    1.1681595   0.60117394   0.60117394 -3.0510718e-11 2.4119889e-11 -3.2843214e-11            0       -13.44       -13.44    66.430057    4.0499959         4.05         4.05        4 
Loop time of 8.70228e-05 on 1 procs for 1 steps with 4 atoms

0.0% CPU use with 1 MPI tasks x no OpenMP threads

Minimization stats:
  Stopping criterion = force tolerance
  Energy initial, next-to-last, final = 
        -13.4400000916     -13.4400000916     -13.4400000916
  Force two-norm initial, final = 4.29254e-15 1.91454e-15
  Force max component initial, final = 3.2821e-15 9.4369e-16
  Final line search alpha, max atom move = 1 9.4369e-16
  Iterations, force evaluations = 1 2

MPI task timing breakdown:
Section |  min time  |  avg time  |  max time  |%varavg| %total
---------------------------------------------------------------
Pair    | 5.6982e-05 | 5.6982e-05 | 5.6982e-05 |   0.0 | 65.48
Neigh   | 0          | 0          | 0          |   0.0 |  0.00
Comm    | 6.9141e-06 | 6.9141e-06 | 6.9141e-06 |   0.0 |  7.95
Output  | 0          | 0          | 0          |   0.0 |  0.00
Modify  | 0          | 0          | 0          |   0.0 |  0.00
Other   |            | 2.313e-05  |            |       | 26.58

Nlocal:    4 ave 4 max 4 min
Histogram: 1 0 0 0 0 0 0 0 0 0
Nghost:    360 ave 360 max 360 min
Histogram: 1 0 0 0 0 0 0 0 0 0
Neighs:    268 ave 268 max 268 min
Histogram: 1 0 0 0 0 0 0 0 0 0

Total # of neighbors = 268
Ave neighs/atom = 67
Neighbor list builds = 0
Dangerous builds = 0
Reading restart file ...
  restart file = 13 Jan 2016, LAMMPS = 13 Jan 2016
  triclinic box = (-0.00553514 -0.00553514 -0.00553514) to (4.04446 4.04446 4.04446) with tilt (0 0 0)
  1 by 1 by 1 MPI processor grid
  4 atoms
Changing box ...
  triclinic box = (-0.00553514 -0.00553514 -0.00553514) to (4.04447 4.04446 4.04446) with tilt (0 0 0)
Neighbor list info ...
  1 neighbor list requests
  update every 1 steps, delay 0 steps, check yes
  max neighbors/atom: 2000, page size: 100000
  master list distance cutoff = 7.72488
  ghost atom cutoff = 7.72488
Setting up cg style minimization ...
  Unit style: metal
Memory usage per processor = 3.31879 Mbytes
Step Temp Press CPU Pxx Pyy Pzz Pxy Pxz Pyz KinEng PotEng TotEng Volume Lx Ly Lz Atoms 
       8            0  -0.79016372            0   -1.1681501  -0.60117055  -0.60117055 -3.1452021e-11 -1.548021e-12 3.1797188e-11            0       -13.44       -13.44     66.43019     4.050004         4.05         4.05        4 
       9            0  -0.79016372 6.8902969e-05   -1.1681501  -0.60117055  -0.60117055 -3.0113192e-11 1.443425e-12 -3.2508441e-11            0       -13.44       -13.44     66.43019     4.050004         4.05         4.05        4 
Loop time of 8.29697e-05 on 1 procs for 1 steps with 4 atoms

0.0% CPU use with 1 MPI tasks x no OpenMP threads

Minimization stats:
  Stopping criterion = force tolerance
  Energy initial, next-to-last, final = 
        -13.4400000916     -13.4400000916     -13.4400000916
  Force two-norm initial, final = 5.29689e-15 2.6228e-15
  Force max component initial, final = 3.8719e-15 1.27676e-15
  Final line search alpha, max atom move = 1 1.27676e-15
  Iterations, force evaluations = 1 2

MPI task timing breakdown:
Section |  min time  |  avg time  |  max time  |%varavg| %total
---------------------------------------------------------------
Pair    | 5.579e-05  | 5.579e-05  | 5.579e-05  |   0.0 | 67.24
Neigh   | 0          | 0          | 0          |   0.0 |  0.00
Comm    | 7.1526e-06 | 7.1526e-06 | 7.1526e-06 |   0.0 |  8.62
Output  | 0          | 0          | 0          |   0.0 |  0.00
Modify  | 0          | 0          | 0          |   0.0 |  0.00
Other   |            | 2.003e-05  |            |       | 24.14

Nlocal:    4 ave 4 max 4 min
Histogram: 1 0 0 0 0 0 0 0 0 0
Nghost:    360 ave 360 max 360 min
Histogram: 1 0 0 0 0 0 0 0 0 0
Neighs:    268 ave 268 max 268 min
Histogram: 1 0 0 0 0 0 0 0 0 0

Total # of neighbors = 268
Ave neighs/atom = 67
Neighbor list builds = 0
Dangerous builds = 0
Reading restart file ...
  restart file = 13 Jan 2016, LAMMPS = 13 Jan 2016
  triclinic box = (-0.00553514 -0.00553514 -0.00553514) to (4.04446 4.04446 4.04446) with tilt (0 0 0)
  1 by 1 by 1 MPI processor grid
  4 atoms
Changing box ...
  triclinic box = (-0.00553514 -0.00553514 -0.00553514) to (4.04446 4.04446 4.04446) with tilt (0 0 0)
Neighbor list info ...
  1 neighbor list requests
  update every 1 steps, delay 0 steps, check yes
  max neighbors/atom: 2000, page size: 100000
  master list distance cutoff = 7.72488
  ghost atom cutoff = 7.72488
Setting up cg style minimization ...
  Unit style: metal
Memory usage per processor = 3.31879 Mbytes
Step Temp Press CPU Pxx Pyy Pzz Pxy Pxz Pyz KinEng PotEng TotEng Volume Lx Ly Lz Atoms 
       8            0   0.79016912            0   0.60117394    1.1681595   0.60117394 3.0134171e-11 1.0166753e-11 1.3806701e-12            0       -13.44       -13.44    66.430057         4.05    4.0499959         4.05        4 
       9            0   0.79016912 7.0095062e-05   0.60117394    1.1681595   0.60117394 1.4748067e-12 8.472294e-12 -3.1378867e-12            0       -13.44       -13.44    66.430057         4.05    4.0499959         4.05        4 
Loop time of 8.29697e-05 on 1 procs for 1 steps with 4 atoms

0.0% CPU use with 1 MPI tasks x no OpenMP threads

Minimization stats:
  Stopping criterion = force tolerance
  Energy initial, next-to-last, final = 
        -13.4400000916     -13.4400000916     -13.4400000916
  Force two-norm initial, final = 3.89825e-15 3.60889e-16
  Force max component initial, final = 1.91513e-15 2.08167e-16
  Final line search alpha, max atom move = 1 2.08167e-16
  Iterations, force evaluations = 1 2

MPI task timing breakdown:
Section |  min time  |  avg time  |  max time  |%varavg| %total
---------------------------------------------------------------
Pair    | 5.6982e-05 | 5.6982e-05 | 5.6982e-05 |   0.0 | 68.68
Neigh   | 0          | 0          | 0          |   0.0 |  0.00
Comm    | 7.1526e-06 | 7.1526e-06 | 7.1526e-06 |   0.0 |  8.62
Output  | 0          | 0          | 0          |   0.0 |  0.00
Modify  | 0          | 0          | 0          |   0.0 |  0.00
Other   |            | 1.884e-05  |            |       | 22.70

Nlocal:    4 ave 4 max 4 min
Histogram: 1 0 0 0 0 0 0 0 0 0
Nghost:    360 ave 360 max 360 min
Histogram: 1 0 0 0 0 0 0 0 0 0
Neighs:    268 ave 268 max 268 min
Histogram: 1 0 0 0 0 0 0 0 0 0

Total # of neighbors = 268
Ave neighs/atom = 67
Neighbor list builds = 0
Dangerous builds = 0
Reading restart file ...
  restart file = 13 Jan 2016, LAMMPS = 13 Jan 2016
  triclinic box = (-0.00553514 -0.00553514 -0.00553514) to (4.04446 4.04446 4.04446) with tilt (0 0 0)
  1 by 1 by 1 MPI processor grid
  4 atoms
Changing box ...
  triclinic box = (-0.00553514 -0.00553514 -0.00553514) to (4.04446 4.04447 4.04446) with tilt (0 0 0)
Neighbor list info ...
  1 neighbor list requests
  update every 1 steps, delay 0 steps, check yes
  max neighbors/atom: 2000, page size: 100000
  master list distance cutoff = 7.72488
  ghost atom cutoff = 7.72488
Setting up cg style minimization ...
  Unit style: metal
Memory usage per processor = 3.31879 Mbytes
Step Temp Press CPU Pxx Pyy Pzz Pxy Pxz Pyz KinEng PotEng TotEng Volume Lx Ly Lz Atoms 
       8            0  -0.79016372            0  -0.60117055   -1.1681501  -0.60117055 -3.2205112e-11 6.2757608e-13 7.4890745e-12            0       -13.44       -13.44     66.43019         4.05     4.050004         4.05        4 
       9            0  -0.79016372 6.9141388e-05  -0.60117055   -1.1681501  -0.60117055 -3.5981028e-11 2.991446e-12 -2.8868499e-12            0       -13.44       -13.44     66.43019         4.05     4.050004         4.05        4 
Loop time of 8.32081e-05 on 1 procs for 1 steps with 4 atoms

0.0% CPU use with 1 MPI tasks x no OpenMP threads

Minimization stats:
  Stopping criterion = quadratic factors are zero
  Energy initial, next-to-last, final = 
        -13.4400000916     -13.4400000916     -13.4400000916
  Force two-norm initial, final = 3.10332e-15 3.2015e-15
  Force max component initial, final = 1.70697e-15 1.84575e-15
  Final line search alpha, max atom move = 1 1.84575e-15
  Iterations, force evaluations = 1 2

MPI task timing breakdown:
Section |  min time  |  avg time  |  max time  |%varavg| %total
---------------------------------------------------------------
Pair    | 5.5313e-05 | 5.5313e-05 | 5.5313e-05 |   0.0 | 66.48
Neigh   | 0          | 0          | 0          |   0.0 |  0.00
Comm    | 5.722e-06  | 5.722e-06  | 5.722e-06  |   0.0 |  6.88
Output  | 0          | 0          | 0          |   0.0 |  0.00
Modify  | 0          | 0          | 0          |   0.0 |  0.00
Other   |            | 2.217e-05  |            |       | 26.65

Nlocal:    4 ave 4 max 4 min
Histogram: 1 0 0 0 0 0 0 0 0 0
Nghost:    360 ave 360 max 360 min
Histogram: 1 0 0 0 0 0 0 0 0 0
Neighs:    268 ave 268 max 268 min
Histogram: 1 0 0 0 0 0 0 0 0 0

Total # of neighbors = 268
Ave neighs/atom = 67
Neighbor list builds = 0
Dangerous builds = 0
Reading restart file ...
  restart file = 13 Jan 2016, LAMMPS = 13 Jan 2016
  triclinic box = (-0.00553514 -0.00553514 -0.00553514) to (4.04446 4.04446 4.04446) with tilt (0 0 0)
  1 by 1 by 1 MPI processor grid
  4 atoms
Changing box ...
  triclinic box = (-0.00553514 -0.00553514 -0.00553514) to (4.04446 4.04446 4.04446) with tilt (0 0 0)
Neighbor list info ...
  1 neighbor list requests
  update every 1 steps, delay 0 steps, check yes
  max neighbors/atom: 2000, page size: 100000
  master list distance cutoff = 7.72488
  ghost atom cutoff = 7.72488
Setting up cg style minimization ...
  Unit style: metal
Memory usage per processor = 3.31879 Mbytes
Step Temp Press CPU Pxx Pyy Pzz Pxy Pxz Pyz KinEng PotEng TotEng Volume Lx Ly Lz Atoms 
       8            0   0.79016912            0   0.60117394   0.60117394    1.1681595 -6.3803695e-13 4.1838489e-14 4.3512028e-12            0       -13.44       -13.44    66.430057         4.05         4.05    4.0499959        4 
       9            0   0.79016912 7.0810318e-05   0.60117394   0.60117394    1.1681595 2.9778544e-11 -7.9493129e-13 3.238299e-11            0       -13.44       -13.44    66.430057         4.05         4.05    4.0499959        4 
Loop time of 8.39233e-05 on 1 procs for 1 steps with 4 atoms

0.0% CPU use with 1 MPI tasks x no OpenMP threads

Minimization stats:
  Stopping criterion = force tolerance
  Energy initial, next-to-last, final = 
        -13.4400000916     -13.4400000916     -13.4400000916
  Force two-norm initial, final = 4.07498e-15 2.07057e-15
  Force max component initial, final = 2.68535e-15 1.41206e-15
  Final line search alpha, max atom move = 1 1.41206e-15
  Iterations, force evaluations = 1 2

MPI task timing breakdown:
Section |  min time  |  avg time  |  max time  |%varavg| %total
---------------------------------------------------------------
Pair    | 5.6744e-05 | 5.6744e-05 | 5.6744e-05 |   0.0 | 67.61
Neigh   | 0          | 0          | 0          |   0.0 |  0.00
Comm    | 7.391e-06  | 7.391e-06  | 7.391e-06  |   0.0 |  8.81
Output  | 0          | 0          | 0          |   0.0 |  0.00
Modify  | 0          | 0          | 0          |   0.0 |  0.00
Other   |            | 1.979e-05  |            |       | 23.58

Nlocal:    4 ave 4 max 4 min
Histogram: 1 0 0 0 0 0 0 0 0 0
Nghost:    360 ave 360 max 360 min
Histogram: 1 0 0 0 0 0 0 0 0 0
Neighs:    268 ave 268 max 268 min
Histogram: 1 0 0 0 0 0 0 0 0 0

Total # of neighbors = 268
Ave neighs/atom = 67
Neighbor list builds = 0
Dangerous builds = 0
Reading restart file ...
  restart file = 13 Jan 2016, LAMMPS = 13 Jan 2016
  triclinic box = (-0.00553514 -0.00553514 -0.00553514) to (4.04446 4.04446 4.04446) with tilt (0 0 0)
  1 by 1 by 1 MPI processor grid
  4 atoms
Changing box ...
  triclinic box = (-0.00553514 -0.00553514 -0.00553514) to (4.04446 4.04446 4.04447) with tilt (0 0 0)
Neighbor list info ...
  1 neighbor list requests
  update every 1 steps, delay 0 steps, check yes
  max neighbors/atom: 2000, page size: 100000
  master list distance cutoff = 7.72488
  ghost atom cutoff = 7.72488
Setting up cg style minimization ...
  Unit style: metal
Memory usage per processor = 3.31879 Mbytes
Step Temp Press CPU Pxx Pyy Pzz Pxy Pxz Pyz KinEng PotEng TotEng Volume Lx Ly Lz Atoms 
       8            0  -0.79016372            0  -0.60117055  -0.60117055   -1.1681501 -3.2320168e-12 -1.1359127e-11 -2.7194963e-12            0       -13.44       -13.44     66.43019         4.05         4.05     4.050004        4 
       9            0  -0.79016372 7.1048737e-05  -0.60117055  -0.60117055   -1.1681501 -5.2402602e-12 -3.9955677e-12 -2.7194963e-12            0       -13.44       -13.44     66.43019         4.05         4.05     4.050004        4 
Loop time of 8.39233e-05 on 1 procs for 1 steps with 4 atoms

0.0% CPU use with 1 MPI tasks x no OpenMP threads

Minimization stats:
  Stopping criterion = quadratic factors are zero
  Energy initial, next-to-last, final = 
        -13.4400000916     -13.4400000916     -13.4400000916
  Force two-norm initial, final = 3.31751e-15 1.5477e-16
  Force max component initial, final = 2.75474e-15 8.32667e-17
  Final line search alpha, max atom move = 1 8.32667e-17
  Iterations, force evaluations = 1 2

MPI task timing breakdown:
Section |  min time  |  avg time  |  max time  |%varavg| %total
---------------------------------------------------------------
Pair    | 5.722e-05  | 5.722e-05  | 5.722e-05  |   0.0 | 68.18
Neigh   | 0          | 0          | 0          |   0.0 |  0.00
Comm    | 5.9605e-06 | 5.9605e-06 | 5.9605e-06 |   0.0 |  7.10
Output  | 0          | 0          | 0          |   0.0 |  0.00
Modify  | 0          | 0          | 0          |   0.0 |  0.00
Other   |            | 2.074e-05  |            |       | 24.72

Nlocal:    4 ave 4 max 4 min
Histogram: 1 0 0 0 0 0 0 0 0 0
Nghost:    360 ave 360 max 360 min
Histogram: 1 0 0 0 0 0 0 0 0 0
Neighs:    268 ave 268 max 268 min
Histogram: 1 0 0 0 0 0 0 0 0 0

Total # of neighbors = 268
Ave neighs/atom = 67
Neighbor list builds = 0
Dangerous builds = 0
Reading restart file ...
  restart file = 13 Jan 2016, LAMMPS = 13 Jan 2016
  triclinic box = (-0.00553514 -0.00553514 -0.00553514) to (4.04446 4.04446 4.04446) with tilt (0 0 0)
  1 by 1 by 1 MPI processor grid
  4 atoms
Changing box ...
  triclinic box = (-0.00553514 -0.00553514 -0.00553514) to (4.04446 4.04446 4.04446) with tilt (0 0 -4.05e-06)
Neighbor list info ...
  1 neighbor list requests
  update every 1 steps, delay 0 steps, check yes
  max neighbors/atom: 2000, page size: 100000
  master list distance cutoff = 7.72488
  ghost atom cutoff = 7.72488
Setting up cg style minimization ...
  Unit style: metal
Memory usage per processor = 3.31879 Mbytes
Step Temp Press CPU Pxx Pyy Pzz Pxy Pxz Pyz KinEng PotEng TotEng Volume Lx Ly Lz Atoms 
       8            0 7.0406223e-07            0 6.8123901e-08 8.4718709e-07 1.1968757e-06 1.4225072e-12 -7.3844859e-12   0.31659621            0       -13.44       -13.44    66.430123         4.05         4.05         4.05        4 
       9            0 7.0398968e-07 7.1048737e-05 6.8104875e-08 8.470354e-07 1.1968288e-06 2.451733e-11 5.0206136e-13   0.31659621            0       -13.44       -13.44    66.430123         4.05         4.05         4.05        4 
Loop time of 8.39233e-05 on 1 procs for 1 steps with 4 atoms

0.0% CPU use with 1 MPI tasks x no OpenMP threads

Minimization stats:
  Stopping criterion = force tolerance
  Energy initial, next-to-last, final = 
        -13.4400000916     -13.4400000916     -13.4400000916
  Force two-norm initial, final = 5.87187e-15 4.81352e-15
  Force max component initial, final = 4.77743e-15 3.25087e-15
  Final line search alpha, max atom move = 1 3.25087e-15
  Iterations, force evaluations = 1 2

MPI task timing breakdown:
Section |  min time  |  avg time  |  max time  |%varavg| %total
---------------------------------------------------------------
Pair    | 5.6982e-05 | 5.6982e-05 | 5.6982e-05 |   0.0 | 67.90
Neigh   | 0          | 0          | 0          |   0.0 |  0.00
Comm    | 7.1526e-06 | 7.1526e-06 | 7.1526e-06 |   0.0 |  8.52
Output  | 0          | 0          | 0          |   0.0 |  0.00
Modify  | 0          | 0          | 0          |   0.0 |  0.00
Other   |            | 1.979e-05  |            |       | 23.58

Nlocal:    4 ave 4 max 4 min
Histogram: 1 0 0 0 0 0 0 0 0 0
Nghost:    360 ave 360 max 360 min
Histogram: 1 0 0 0 0 0 0 0 0 0
Neighs:    268 ave 268 max 268 min
Histogram: 1 0 0 0 0 0 0 0 0 0

Total # of neighbors = 268
Ave neighs/atom = 67
Neighbor list builds = 0
Dangerous builds = 0
Reading restart file ...
  restart file = 13 Jan 2016, LAMMPS = 13 Jan 2016
  triclinic box = (-0.00553514 -0.00553514 -0.00553514) to (4.04446 4.04446 4.04446) with tilt (0 0 0)
  1 by 1 by 1 MPI processor grid
  4 atoms
Changing box ...
  triclinic box = (-0.00553514 -0.00553514 -0.00553514) to (4.04446 4.04446 4.04446) with tilt (0 0 4.05e-06)
Neighbor list info ...
  1 neighbor list requests
  update every 1 steps, delay 0 steps, check yes
  max neighbors/atom: 2000, page size: 100000
  master list distance cutoff = 7.72488
  ghost atom cutoff = 7.72488
Setting up cg style minimization ...
  Unit style: metal
Memory usage per processor = 3.31879 Mbytes
Step Temp Press CPU Pxx Pyy Pzz Pxy Pxz Pyz KinEng PotEng TotEng Volume Lx Ly Lz Atoms 
       8            0 7.040422e-07            0 6.8110596e-08 8.4716615e-07 1.1968499e-06 -6.4535804e-12 -7.1543744e-12  -0.31659621            0       -13.44       -13.44    66.430123         4.05         4.05         4.05        4 
       9            0 7.0397065e-07 6.9856644e-05 6.810523e-08 8.4699704e-07 1.1968097e-06  2.15468e-11 6.7359899e-12  -0.31659621            0       -13.44       -13.44    66.430123         4.05         4.05         4.05        4 
Loop time of 8.29697e-05 on 1 procs for 1 steps with 4 atoms

0.0% CPU use with 1 MPI tasks x no OpenMP threads

Minimization stats:
  Stopping criterion = force tolerance
  Energy initial, next-to-last, final = 
        -13.4400000916     -13.4400000916     -13.4400000916
  Force two-norm initial, final = 5.60693e-15 5.68933e-15
  Force max component initial, final = 3.94823e-15 4.2813e-15
  Final line search alpha, max atom move = 1 4.2813e-15
  Iterations, force evaluations = 1 2

MPI task timing breakdown:
Section |  min time  |  avg time  |  max time  |%varavg| %total
---------------------------------------------------------------
Pair    | 5.6744e-05 | 5.6744e-05 | 5.6744e-05 |   0.0 | 68.39
Neigh   | 0          | 0          | 0          |   0.0 |  0.00
Comm    | 5.4836e-06 | 5.4836e-06 | 5.4836e-06 |   0.0 |  6.61
Output  | 0          | 0          | 0          |   0.0 |  0.00
Modify  | 0          | 0          | 0          |   0.0 |  0.00
Other   |            | 2.074e-05  |            |       | 25.00

Nlocal:    4 ave 4 max 4 min
Histogram: 1 0 0 0 0 0 0 0 0 0
Nghost:    360 ave 360 max 360 min
Histogram: 1 0 0 0 0 0 0 0 0 0
Neighs:    268 ave 268 max 268 min
Histogram: 1 0 0 0 0 0 0 0 0 0

Total # of neighbors = 268
Ave neighs/atom = 67
Neighbor list builds = 0
Dangerous builds = 0
Reading restart file ...
  restart file = 13 Jan 2016, LAMMPS = 13 Jan 2016
  triclinic box = (-0.00553514 -0.00553514 -0.00553514) to (4.04446 4.04446 4.04446) with tilt (0 0 0)
  1 by 1 by 1 MPI processor grid
  4 atoms
Changing box ...
  triclinic box = (-0.00553514 -0.00553514 -0.00553514) to (4.04446 4.04446 4.04446) with tilt (0 -4.05e-06 0)
Neighbor list info ...
  1 neighbor list requests
  update every 1 steps, delay 0 steps, check yes
  max neighbors/atom: 2000, page size: 100000
  master list distance cutoff = 7.72488
  ghost atom cutoff = 7.72488
Setting up cg style minimization ...
  Unit style: metal
Memory usage per processor = 3.31879 Mbytes
Step Temp Press CPU Pxx Pyy Pzz Pxy Pxz Pyz KinEng PotEng TotEng Volume Lx Ly Lz Atoms 
       8            0 7.0412208e-07            0 8.4701535e-07 6.8422952e-08 1.1969279e-06 -7.3740263e-12   0.31659621 -7.0958006e-11            0       -13.44       -13.44    66.430123         4.05         4.05         4.05        4 
       9            0 7.039867e-07 7.0095062e-05 8.469648e-07 6.8183447e-08 1.1968119e-06 -1.0459612e-14   0.31659621 5.8615664e-11            0       -13.44       -13.44    66.430123         4.05         4.05         4.05        4 
Loop time of 8.32081e-05 on 1 procs for 1 steps with 4 atoms

0.0% CPU use with 1 MPI tasks x no OpenMP threads

Minimization stats:
  Stopping criterion = force tolerance
  Energy initial, next-to-last, final = 
        -13.4400000916     -13.4400000916     -13.4400000916
  Force two-norm initial, final = 5.12858e-15 5.32796e-15
  Force max component initial, final = 2.72005e-15 2.92474e-15
  Final line search alpha, max atom move = 1 2.92474e-15
  Iterations, force evaluations = 1 2

MPI task timing breakdown:
Section |  min time  |  avg time  |  max time  |%varavg| %total
---------------------------------------------------------------
Pair    | 5.6028e-05 | 5.6028e-05 | 5.6028e-05 |   0.0 | 67.34
Neigh   | 0          | 0          | 0          |   0.0 |  0.00
Comm    | 5.722e-06  | 5.722e-06  | 5.722e-06  |   0.0 |  6.88
Output  | 0          | 0          | 0          |   0.0 |  0.00
Modify  | 0          | 0          | 0          |   0.0 |  0.00
Other   |            | 2.146e-05  |            |       | 25.79

Nlocal:    4 ave 4 max 4 min
Histogram: 1 0 0 0 0 0 0 0 0 0
Nghost:    360 ave 360 max 360 min
Histogram: 1 0 0 0 0 0 0 0 0 0
Neighs:    268 ave 268 max 268 min
Histogram: 1 0 0 0 0 0 0 0 0 0

Total # of neighbors = 268
Ave neighs/atom = 67
Neighbor list builds = 0
Dangerous builds = 0
Reading restart file ...
  restart file = 13 Jan 2016, LAMMPS = 13 Jan 2016
  triclinic box = (-0.00553514 -0.00553514 -0.00553514) to (4.04446 4.04446 4.04446) with tilt (0 0 0)
  1 by 1 by 1 MPI processor grid
  4 atoms
Changing box ...
  triclinic box = (-0.00553514 -0.00553514 -0.00553514) to (4.04446 4.04446 4.04446) with tilt (0 4.05e-06 0)
Neighbor list info ...
  1 neighbor list requests
  update every 1 steps, delay 0 steps, check yes
  max neighbors/atom: 2000, page size: 100000
  master list distance cutoff = 7.72488
  ghost atom cutoff = 7.72488
Setting up cg style minimization ...
  Unit style: metal
Memory usage per processor = 3.31879 Mbytes
Step Temp Press CPU Pxx Pyy Pzz Pxy Pxz Pyz KinEng PotEng TotEng Volume Lx Ly Lz Atoms 
       8            0 7.0414185e-07            0 8.4704608e-07 6.8407869e-08 1.1969716e-06 7.3112686e-12  -0.31659621 -7.1543744e-11            0       -13.44       -13.44    66.430123         4.05         4.05         4.05        4 
       9            0 7.0389768e-07 6.9856644e-05 8.4682534e-07 6.804287e-08 1.1968248e-06 2.7435562e-11  -0.31659621 5.3427697e-11            0       -13.44       -13.44    66.430123         4.05         4.05         4.05        4 
Loop time of 8.29697e-05 on 1 procs for 1 steps with 4 atoms

0.0% CPU use with 1 MPI tasks x no OpenMP threads

Minimization stats:
  Stopping criterion = force tolerance
  Energy initial, next-to-last, final = 
        -13.4400000916     -13.4400000916     -13.4400000916
  Force two-norm initial, final = 8.58085e-15 6.43192e-15
  Force max component initial, final = 4.91274e-15 3.55271e-15
  Final line search alpha, max atom move = 1 3.55271e-15
  Iterations, force evaluations = 1 2

MPI task timing breakdown:
Section |  min time  |  avg time  |  max time  |%varavg| %total
---------------------------------------------------------------
Pair    | 5.6028e-05 | 5.6028e-05 | 5.6028e-05 |   0.0 | 67.53
Neigh   | 0          | 0          | 0          |   0.0 |  0.00
Comm    | 5.9605e-06 | 5.9605e-06 | 5.9605e-06 |   0.0 |  7.18
Output  | 0          | 0          | 0          |   0.0 |  0.00
Modify  | 0          | 0          | 0          |   0.0 |  0.00
Other   |            | 2.098e-05  |            |       | 25.29

Nlocal:    4 ave 4 max 4 min
Histogram: 1 0 0 0 0 0 0 0 0 0
Nghost:    360 ave 360 max 360 min
Histogram: 1 0 0 0 0 0 0 0 0 0
Neighs:    268 ave 268 max 268 min
Histogram: 1 0 0 0 0 0 0 0 0 0

Total # of neighbors = 268
Ave neighs/atom = 67
Neighbor list builds = 0
Dangerous builds = 0
Reading restart file ...
  restart file = 13 Jan 2016, LAMMPS = 13 Jan 2016
  triclinic box = (-0.00553514 -0.00553514 -0.00553514) to (4.04446 4.04446 4.04446) with tilt (0 0 0)
  1 by 1 by 1 MPI processor grid
  4 atoms
Changing box ...
  triclinic box = (-0.00553514 -0.00553514 -0.00553514) to (4.04446 4.04446 4.04446) with tilt (-4.05e-06 0 0)
Neighbor list info ...
  1 neighbor list requests
  update every 1 steps, delay 0 steps, check yes
  max neighbors/atom: 2000, page size: 100000
  master list distance cutoff = 7.72488
  ghost atom cutoff = 7.72488
Setting up cg style minimization ...
  Unit style: metal
Memory usage per processor = 3.31879 Mbytes
Step Temp Press CPU Pxx Pyy Pzz Pxy Pxz Pyz KinEng PotEng TotEng Volume Lx Ly Lz Atoms 
       8            0 7.0409011e-07            0 8.4698298e-07 1.197002e-06 6.8285366e-08   0.31659621 3.5144295e-12 -5.2967474e-11            0       -13.44       -13.44    66.430123         4.05         4.05         4.05        4 
       9            0 7.0383254e-07 7.1048737e-05 8.4682441e-07 1.1965809e-06 6.8092323e-08   0.31659621 3.8700563e-12 1.1965796e-11            0       -13.44       -13.44    66.430123         4.05         4.05         4.05        4 
Loop time of 8.39233e-05 on 1 procs for 1 steps with 4 atoms

0.0% CPU use with 1 MPI tasks x no OpenMP threads

Minimization stats:
  Stopping criterion = force tolerance
  Energy initial, next-to-last, final = 
        -13.4400000916     -13.4400000916     -13.4400000916
  Force two-norm initial, final = 5.41178e-15 4.6426e-15
  Force max component initial, final = 3.19883e-15 3.57006e-15
  Final line search alpha, max atom move = 1 3.57006e-15
  Iterations, force evaluations = 1 2

MPI task timing breakdown:
Section |  min time  |  avg time  |  max time  |%varavg| %total
---------------------------------------------------------------
Pair    | 5.6982e-05 | 5.6982e-05 | 5.6982e-05 |   0.0 | 67.90
Neigh   | 0          | 0          | 0          |   0.0 |  0.00
Comm    | 5.9605e-06 | 5.9605e-06 | 5.9605e-06 |   0.0 |  7.10
Output  | 0          | 0          | 0          |   0.0 |  0.00
Modify  | 0          | 0          | 0          |   0.0 |  0.00
Other   |            | 2.098e-05  |            |       | 25.00

Nlocal:    4 ave 4 max 4 min
Histogram: 1 0 0 0 0 0 0 0 0 0
Nghost:    360 ave 360 max 360 min
Histogram: 1 0 0 0 0 0 0 0 0 0
Neighs:    268 ave 268 max 268 min
Histogram: 1 0 0 0 0 0 0 0 0 0

Total # of neighbors = 268
Ave neighs/atom = 67
Neighbor list builds = 0
Dangerous builds = 0
Reading restart file ...
  restart file = 13 Jan 2016, LAMMPS = 13 Jan 2016
  triclinic box = (-0.00553514 -0.00553514 -0.00553514) to (4.04446 4.04446 4.04446) with tilt (0 0 0)
  1 by 1 by 1 MPI processor grid
  4 atoms
Changing box ...
  triclinic box = (-0.00553514 -0.00553514 -0.00553514) to (4.04446 4.04446 4.04446) with tilt (4.05e-06 0 0)
Neighbor list info ...
  1 neighbor list requests
  update every 1 steps, delay 0 steps, check yes
  max neighbors/atom: 2000, page size: 100000
  master list distance cutoff = 7.72488
  ghost atom cutoff = 7.72488
Setting up cg style minimization ...
  Unit style: metal
Memory usage per processor = 3.31879 Mbytes
Step Temp Press CPU Pxx Pyy Pzz Pxy Pxz Pyz KinEng PotEng TotEng Volume Lx Ly Lz Atoms 
       8            0 7.0416451e-07            0 8.4710809e-07 1.1970258e-06 6.8359671e-08  -0.31659621 -2.719499e-12 -7.7359288e-11            0       -13.44       -13.44    66.430123         4.05         4.05         4.05        4 
       9            0 7.038596e-07 7.1048737e-05 8.4678263e-07 1.1967323e-06 6.8063873e-08  -0.31659621 1.1066269e-11 5.9034049e-11            0       -13.44       -13.44    66.430123         4.05         4.05         4.05        4 
Loop time of 8.39233e-05 on 1 procs for 1 steps with 4 atoms

0.0% CPU use with 1 MPI tasks x no OpenMP threads

Minimization stats:
  Stopping criterion = force tolerance
  Energy initial, next-to-last, final = 
        -13.4400000916     -13.4400000916     -13.4400000916
  Force two-norm initial, final = 8.26273e-15 7.51318e-15
  Force max component initial, final = 4.93008e-15 3.37577e-15
  Final line search alpha, max atom move = 1 3.37577e-15
  Iterations, force evaluations = 1 2

MPI task timing breakdown:
Section |  min time  |  avg time  |  max time  |%varavg| %total
---------------------------------------------------------------
Pair    | 5.722e-05  | 5.722e-05  | 5.722e-05  |   0.0 | 68.18
Neigh   | 0          | 0          | 0          |   0.0 |  0.00
Comm    | 6.9141e-06 | 6.9141e-06 | 6.9141e-06 |   0.0 |  8.24
Output  | 0          | 0          | 0          |   0.0 |  0.00
Modify  | 0          | 0          | 0          |   0.0 |  0.00
Other   |            | 1.979e-05  |            |       | 23.58

Nlocal:    4 ave 4 max 4 min
Histogram: 1 0 0 0 0 0 0 0 0 0
Nghost:    360 ave 360 max 360 min
Histogram: 1 0 0 0 0 0 0 0 0 0
Neighs:    268 ave 268 max 268 min
Histogram: 1 0 0 0 0 0 0 0 0 0

Total # of neighbors = 268
Ave neighs/atom = 67
Neighbor list builds = 0
Dangerous builds = 0
Elastic Constant C11all = 116.815477512155 GPa
Elastic Constant C22all = 116.815477497723 GPa
Elastic Constant C33all = 116.815477497357 GPa
Elastic Constant C12all = 60.1172244729972 GPa
Elastic Constant C13all = 60.1172244714263 GPa
Elastic Constant C23all = 60.1172244580029 GPa
Elastic Constant C44all = 31.6596214444705 GPa
Elastic Constant C55all = 31.6596214441651 GPa
Elastic Constant C66all = 31.6596214481904 GPa
Elastic Constant C14all = -1.72599931138647e-11 GPa
Elastic Constant C15all = 4.05336201810226e-09 GPa
Elastic Constant C16all = 1.03448473712638e-09 GPa
Elastic Constant C24all = 9.52870476403456e-10 GPa
Elastic Constant C25all = 3.65145073542458e-09 GPa
Elastic Constant C26all = -2.848937602847e-09 GPa
Elastic Constant C34all = 1.35452045826532e-09 GPa
Elastic Constant C35all = -2.44232053412222e-10 GPa
Elastic Constant C36all = 1.58672371024265e-09 GPa
Elastic Constant C45all = -2.614902928123e-11 GPa
Elastic Constant C46all = -1.1024430744966e-09 GPa
Elastic Constant C56all = -8.66055849794291e-10 GPa
Total wall time: 0:00:00
