datafile (written by JARVIS-FF) 

4 	 atoms 
1  atom types
0.0 4.0499999675  xlo xhi
0.0 4.0499999675  ylo yhi
0.0 4.0499999674  zlo zhi
0E-10 0E-10 0E-10  xy xz yz


Atoms 

     1   1 0.000000 0E-10 0E-10 0E-10
     2   1 0.000000 0E-10 2.0249999838 2.0249999838
     3   1 0.000000 2.0249999838 0E-10 2.0249999838
     4   1 0.000000 2.0249999838 2.0249999838 0E-10
