LAMMPS (13 Jan 2016)
Reading data file ...
  triclinic box = (0 0 0) to (4.05 4.05 4.05) with tilt (0 0 0)
  1 by 1 by 1 MPI processor grid
  reading atoms ...
  4 atoms
Neighbor list info ...
  1 neighbor list requests
  update every 1 steps, delay 0 steps, check yes
  max neighbors/atom: 2000, page size: 100000
  master list distance cutoff = 7.72488
  ghost atom cutoff = 7.72488
Setting up cg style minimization ...
  Unit style: metal
Memory usage per processor = 3.31879 Mbytes
Step Temp Press CPU Pxx Pyy Pzz Pxy Pxz Pyz KinEng PotEng TotEng Volume Lx Ly Lz Atoms 
       0            0 3.9168212e-05            0 3.4501652e-05 3.4501649e-05 4.8501335e-05 -2.4057107e-13 3.9537332e-12 -1.2969919e-12            0       -13.44       -13.44    66.430123         4.05         4.05         4.05        4 
       1            0 -8.9474292e-06 6.6995621e-05 -1.2242847e-05 -1.2242777e-05 -2.3566631e-06 -2.8784851e-11 3.583463e-11 -2.8408305e-11            0       -13.44       -13.44    66.430123         4.05         4.05         4.05        4 
       2            0 1.0876183e-07 0.00014686584 3.3518634e-06 3.3517451e-06 -6.377323e-06 -1.9559474e-12 1.0877996e-12 -3.4684072e-11            0       -13.44       -13.44    66.430123         4.05         4.05         4.05        4 
       3            0 -1.3982758e-09  0.000248909 -1.3085393e-09 -1.426963e-09 -1.459325e-09 6.275767e-13 -7.6564358e-12 -7.112536e-12            0       -13.44       -13.44    66.430123         4.05         4.05         4.05        4 
Loop time of 0.000262976 on 1 procs for 3 steps with 4 atoms

0.0% CPU use with 1 MPI tasks x no OpenMP threads

Minimization stats:
  Stopping criterion = force tolerance
  Energy initial, next-to-last, final = 
        -13.4400000916     -13.4400000916     -13.4400000916
  Force two-norm initial, final = 3.17132e-09 1.01063e-13
  Force max component initial, final = 2.01098e-09 6.05072e-14
  Final line search alpha, max atom move = 1 6.05072e-14
  Iterations, force evaluations = 3 6

MPI task timing breakdown:
Section |  min time  |  avg time  |  max time  |%varavg| %total
---------------------------------------------------------------
Pair    | 0.00013423 | 0.00013423 | 0.00013423 |   0.0 | 51.04
Neigh   | 0          | 0          | 0          |   0.0 |  0.00
Comm    | 1.7643e-05 | 1.7643e-05 | 1.7643e-05 |   0.0 |  6.71
Output  | 4.1008e-05 | 4.1008e-05 | 4.1008e-05 |   0.0 | 15.59
Modify  | 0          | 0          | 0          |   0.0 |  0.00
Other   |            | 7.01e-05   |            |       | 26.65

Nlocal:    4 ave 4 max 4 min
Histogram: 1 0 0 0 0 0 0 0 0 0
Nghost:    360 ave 360 max 360 min
Histogram: 1 0 0 0 0 0 0 0 0 0
Neighs:    268 ave 268 max 268 min
Histogram: 1 0 0 0 0 0 0 0 0 0

Total # of neighbors = 268
Ave neighs/atom = 67
Neighbor list builds = 0
Dangerous builds = 0
Setting up cg style minimization ...
  Unit style: metal
Memory usage per processor = 3.31879 Mbytes
Step Temp Press CPU Pxx Pyy Pzz Pxy Pxz Pyz KinEng PotEng TotEng Volume Lx Ly Lz Atoms 
       3            0 -1.3801737e-09            0 -1.3158819e-09 -1.4041401e-09 -1.4204989e-09 -1.7153763e-12 -5.0624521e-12 -3.1629866e-11            0       -13.44       -13.44    66.430123         4.05         4.05         4.05        4 
       4            0 -1.5344948e-09 7.0095062e-05 -1.4843444e-09 -1.4797422e-09 -1.6393977e-09 -2.2174377e-12 -1.2969919e-12 -4.5185523e-12            0       -13.44       -13.44    66.430123         4.05         4.05         4.05        4 
Loop time of 8.41618e-05 on 1 procs for 1 steps with 4 atoms

0.0% CPU use with 1 MPI tasks x no OpenMP threads

Minimization stats:
  Stopping criterion = force tolerance
  Energy initial, next-to-last, final = 
        -13.4400000916     -13.4400000916     -13.4400000916
  Force two-norm initial, final = 1.03037e-14 3.48578e-15
  Force max component initial, final = 4.74273e-15 2.81025e-15
  Final line search alpha, max atom move = 1 2.81025e-15
  Iterations, force evaluations = 1 2

MPI task timing breakdown:
Section |  min time  |  avg time  |  max time  |%varavg| %total
---------------------------------------------------------------
Pair    | 5.6267e-05 | 5.6267e-05 | 5.6267e-05 |   0.0 | 66.86
Neigh   | 0          | 0          | 0          |   0.0 |  0.00
Comm    | 6.6757e-06 | 6.6757e-06 | 6.6757e-06 |   0.0 |  7.93
Output  | 0          | 0          | 0          |   0.0 |  0.00
Modify  | 0          | 0          | 0          |   0.0 |  0.00
Other   |            | 2.122e-05  |            |       | 25.21

Nlocal:    4 ave 4 max 4 min
Histogram: 1 0 0 0 0 0 0 0 0 0
Nghost:    360 ave 360 max 360 min
Histogram: 1 0 0 0 0 0 0 0 0 0
Neighs:    268 ave 268 max 268 min
Histogram: 1 0 0 0 0 0 0 0 0 0

Total # of neighbors = 268
Ave neighs/atom = 67
Neighbor list builds = 0
Dangerous builds = 0
System init for write_restart ...
System init for write_data ...
Reading restart file ...
  restart file = 13 Jan 2016, LAMMPS = 13 Jan 2016
  triclinic box = (-1.67941e-11 -1.67941e-11 -6.67945e-11) to (4.05 4.05 4.05) with tilt (0 0 0)
  1 by 1 by 1 MPI processor grid
  4 atoms
Changing box ...
  triclinic box = (-1.67941e-11 -1.67941e-11 -6.67945e-11) to (4.05 4.05 4.05) with tilt (0 0 0)
Neighbor list info ...
  1 neighbor list requests
  update every 1 steps, delay 0 steps, check yes
  max neighbors/atom: 2000, page size: 100000
  master list distance cutoff = 7.72488
  ghost atom cutoff = 7.72488
Setting up cg style minimization ...
  Unit style: metal
Memory usage per processor = 3.31879 Mbytes
Step Temp Press CPU Pxx Pyy Pzz Pxy Pxz Pyz KinEng PotEng TotEng Volume Lx Ly Lz Atoms 
       4            0   0.79016912            0    1.1681595   0.60117394   0.60117393 -1.7781358e-12 1.7781358e-12 1.4643471e-12            0       -13.44       -13.44    66.430057    4.0499959         4.05         4.05        4 
       5            0   0.79016912 7.0810318e-05    1.1681595   0.60117394   0.60117393 5.648196e-13 -3.1588059e-12 3.514433e-12            0       -13.44       -13.44    66.430057    4.0499959         4.05         4.05        4 
Loop time of 8.4877e-05 on 1 procs for 1 steps with 4 atoms

0.0% CPU use with 1 MPI tasks x no OpenMP threads

Minimization stats:
  Stopping criterion = force tolerance
  Energy initial, next-to-last, final = 
        -13.4400000916     -13.4400000916     -13.4400000916
  Force two-norm initial, final = 4.40785e-15 2.59987e-15
  Force max component initial, final = 3.48332e-15 2.16493e-15
  Final line search alpha, max atom move = 1 2.16493e-15
  Iterations, force evaluations = 1 2

MPI task timing breakdown:
Section |  min time  |  avg time  |  max time  |%varavg| %total
---------------------------------------------------------------
Pair    | 5.6982e-05 | 5.6982e-05 | 5.6982e-05 |   0.0 | 67.13
Neigh   | 0          | 0          | 0          |   0.0 |  0.00
Comm    | 6.9141e-06 | 6.9141e-06 | 6.9141e-06 |   0.0 |  8.15
Output  | 0          | 0          | 0          |   0.0 |  0.00
Modify  | 0          | 0          | 0          |   0.0 |  0.00
Other   |            | 2.098e-05  |            |       | 24.72

Nlocal:    4 ave 4 max 4 min
Histogram: 1 0 0 0 0 0 0 0 0 0
Nghost:    360 ave 360 max 360 min
Histogram: 1 0 0 0 0 0 0 0 0 0
Neighs:    268 ave 268 max 268 min
Histogram: 1 0 0 0 0 0 0 0 0 0

Total # of neighbors = 268
Ave neighs/atom = 67
Neighbor list builds = 0
Dangerous builds = 0
Reading restart file ...
  restart file = 13 Jan 2016, LAMMPS = 13 Jan 2016
  triclinic box = (-1.67941e-11 -1.67941e-11 -6.67945e-11) to (4.05 4.05 4.05) with tilt (0 0 0)
  1 by 1 by 1 MPI processor grid
  4 atoms
Changing box ...
  triclinic box = (-1.67941e-11 -1.67941e-11 -6.67945e-11) to (4.05 4.05 4.05) with tilt (0 0 0)
Neighbor list info ...
  1 neighbor list requests
  update every 1 steps, delay 0 steps, check yes
  max neighbors/atom: 2000, page size: 100000
  master list distance cutoff = 7.72488
  ghost atom cutoff = 7.72488
Setting up cg style minimization ...
  Unit style: metal
Memory usage per processor = 3.31879 Mbytes
Step Temp Press CPU Pxx Pyy Pzz Pxy Pxz Pyz KinEng PotEng TotEng Volume Lx Ly Lz Atoms 
       4            0  -0.79016372            0   -1.1681501  -0.60117055  -0.60117055 -6.7987408e-12 -1.0438682e-11 2.2174355e-12            0       -13.44       -13.44     66.43019     4.050004         4.05         4.05        4 
       5            0  -0.79016372 7.0095062e-05   -1.1681501  -0.60117055  -0.60117055 -7.7401049e-13 1.443425e-12 5.0206086e-13            0       -13.44       -13.44     66.43019     4.050004         4.05         4.05        4 
Loop time of 8.41618e-05 on 1 procs for 1 steps with 4 atoms

0.0% CPU use with 1 MPI tasks x no OpenMP threads

Minimization stats:
  Stopping criterion = force tolerance
  Energy initial, next-to-last, final = 
        -13.4400000916     -13.4400000916     -13.4400000916
  Force two-norm initial, final = 3.99149e-15 2.75554e-16
  Force max component initial, final = 2.32106e-15 1.8735e-16
  Final line search alpha, max atom move = 1 1.8735e-16
  Iterations, force evaluations = 1 2

MPI task timing breakdown:
Section |  min time  |  avg time  |  max time  |%varavg| %total
---------------------------------------------------------------
Pair    | 5.6028e-05 | 5.6028e-05 | 5.6028e-05 |   0.0 | 66.57
Neigh   | 0          | 0          | 0          |   0.0 |  0.00
Comm    | 5.9605e-06 | 5.9605e-06 | 5.9605e-06 |   0.0 |  7.08
Output  | 0          | 0          | 0          |   0.0 |  0.00
Modify  | 0          | 0          | 0          |   0.0 |  0.00
Other   |            | 2.217e-05  |            |       | 26.35

Nlocal:    4 ave 4 max 4 min
Histogram: 1 0 0 0 0 0 0 0 0 0
Nghost:    360 ave 360 max 360 min
Histogram: 1 0 0 0 0 0 0 0 0 0
Neighs:    268 ave 268 max 268 min
Histogram: 1 0 0 0 0 0 0 0 0 0

Total # of neighbors = 268
Ave neighs/atom = 67
Neighbor list builds = 0
Dangerous builds = 0
Reading restart file ...
  restart file = 13 Jan 2016, LAMMPS = 13 Jan 2016
  triclinic box = (-1.67941e-11 -1.67941e-11 -6.67945e-11) to (4.05 4.05 4.05) with tilt (0 0 0)
  1 by 1 by 1 MPI processor grid
  4 atoms
Changing box ...
  triclinic box = (-1.67941e-11 -1.67941e-11 -6.67945e-11) to (4.05 4.05 4.05) with tilt (0 0 0)
Neighbor list info ...
  1 neighbor list requests
  update every 1 steps, delay 0 steps, check yes
  max neighbors/atom: 2000, page size: 100000
  master list distance cutoff = 7.72488
  ghost atom cutoff = 7.72488
Setting up cg style minimization ...
  Unit style: metal
Memory usage per processor = 3.31879 Mbytes
Step Temp Press CPU Pxx Pyy Pzz Pxy Pxz Pyz KinEng PotEng TotEng Volume Lx Ly Lz Atoms 
       4            0   0.79016912            0   0.60117394    1.1681595   0.60117393 -4.6022338e-13 1.2760739e-12 2.9286942e-12            0       -13.44       -13.44    66.430057         4.05    4.0499959         4.05        4 
       5            0   0.79016912 7.0095062e-05   0.60117393    1.1681595   0.60117393 -7.9493129e-13 1.3597509e-12 2.5103093e-12            0       -13.44       -13.44    66.430057         4.05    4.0499959         4.05        4 
Loop time of 8.39233e-05 on 1 procs for 1 steps with 4 atoms

0.0% CPU use with 1 MPI tasks x no OpenMP threads

Minimization stats:
  Stopping criterion = force tolerance
  Energy initial, next-to-last, final = 
        -13.4400000916     -13.4400000916     -13.4400000916
  Force two-norm initial, final = 4.45634e-15 3.58933e-16
  Force max component initial, final = 3.5319e-15 2.42861e-16
  Final line search alpha, max atom move = 1 2.42861e-16
  Iterations, force evaluations = 1 2

MPI task timing breakdown:
Section |  min time  |  avg time  |  max time  |%varavg| %total
---------------------------------------------------------------
Pair    | 5.5075e-05 | 5.5075e-05 | 5.5075e-05 |   0.0 | 65.62
Neigh   | 0          | 0          | 0          |   0.0 |  0.00
Comm    | 9.0599e-06 | 9.0599e-06 | 9.0599e-06 |   0.0 | 10.80
Output  | 0          | 0          | 0          |   0.0 |  0.00
Modify  | 0          | 0          | 0          |   0.0 |  0.00
Other   |            | 1.979e-05  |            |       | 23.58

Nlocal:    4 ave 4 max 4 min
Histogram: 1 0 0 0 0 0 0 0 0 0
Nghost:    360 ave 360 max 360 min
Histogram: 1 0 0 0 0 0 0 0 0 0
Neighs:    268 ave 268 max 268 min
Histogram: 1 0 0 0 0 0 0 0 0 0

Total # of neighbors = 268
Ave neighs/atom = 67
Neighbor list builds = 0
Dangerous builds = 0
Reading restart file ...
  restart file = 13 Jan 2016, LAMMPS = 13 Jan 2016
  triclinic box = (-1.67941e-11 -1.67941e-11 -6.67945e-11) to (4.05 4.05 4.05) with tilt (0 0 0)
  1 by 1 by 1 MPI processor grid
  4 atoms
Changing box ...
  triclinic box = (-1.67941e-11 -1.67941e-11 -6.67945e-11) to (4.05 4.05 4.05) with tilt (0 0 0)
Neighbor list info ...
  1 neighbor list requests
  update every 1 steps, delay 0 steps, check yes
  max neighbors/atom: 2000, page size: 100000
  master list distance cutoff = 7.72488
  ghost atom cutoff = 7.72488
Setting up cg style minimization ...
  Unit style: metal
Memory usage per processor = 3.31879 Mbytes
Step Temp Press CPU Pxx Pyy Pzz Pxy Pxz Pyz KinEng PotEng TotEng Volume Lx Ly Lz Atoms 
       4            0  -0.79016372            0  -0.60117055   -1.1681501  -0.60117055 -3.3261532e-12 -7.0706904e-12 -8.8697419e-12            0       -13.44       -13.44     66.43019         4.05     4.050004         4.05        4 
       5            0  -0.79016372 6.9141388e-05  -0.60117055   -1.1681501  -0.60117055 1.9768646e-12 -6.2757608e-12 -2.5103043e-13            0       -13.44       -13.44     66.43019         4.05     4.050004         4.05        4 
Loop time of 8.29697e-05 on 1 procs for 1 steps with 4 atoms

0.0% CPU use with 1 MPI tasks x no OpenMP threads

Minimization stats:
  Stopping criterion = force tolerance
  Energy initial, next-to-last, final = 
        -13.4400000916     -13.4400000916     -13.4400000916
  Force two-norm initial, final = 5.40032e-15 3.50535e-15
  Force max component initial, final = 3.36883e-15 2.25514e-15
  Final line search alpha, max atom move = 1 2.25514e-15
  Iterations, force evaluations = 1 2

MPI task timing breakdown:
Section |  min time  |  avg time  |  max time  |%varavg| %total
---------------------------------------------------------------
Pair    | 5.6028e-05 | 5.6028e-05 | 5.6028e-05 |   0.0 | 67.53
Neigh   | 0          | 0          | 0          |   0.0 |  0.00
Comm    | 7.1526e-06 | 7.1526e-06 | 7.1526e-06 |   0.0 |  8.62
Output  | 0          | 0          | 0          |   0.0 |  0.00
Modify  | 0          | 0          | 0          |   0.0 |  0.00
Other   |            | 1.979e-05  |            |       | 23.85

Nlocal:    4 ave 4 max 4 min
Histogram: 1 0 0 0 0 0 0 0 0 0
Nghost:    360 ave 360 max 360 min
Histogram: 1 0 0 0 0 0 0 0 0 0
Neighs:    268 ave 268 max 268 min
Histogram: 1 0 0 0 0 0 0 0 0 0

Total # of neighbors = 268
Ave neighs/atom = 67
Neighbor list builds = 0
Dangerous builds = 0
Reading restart file ...
  restart file = 13 Jan 2016, LAMMPS = 13 Jan 2016
  triclinic box = (-1.67941e-11 -1.67941e-11 -6.67945e-11) to (4.05 4.05 4.05) with tilt (0 0 0)
  1 by 1 by 1 MPI processor grid
  4 atoms
Changing box ...
  triclinic box = (-1.67941e-11 -1.67941e-11 -6.67945e-11) to (4.05 4.05 4.05) with tilt (0 0 0)
Neighbor list info ...
  1 neighbor list requests
  update every 1 steps, delay 0 steps, check yes
  max neighbors/atom: 2000, page size: 100000
  master list distance cutoff = 7.72488
  ghost atom cutoff = 7.72488
Setting up cg style minimization ...
  Unit style: metal
Memory usage per processor = 3.31879 Mbytes
Step Temp Press CPU Pxx Pyy Pzz Pxy Pxz Pyz KinEng PotEng TotEng Volume Lx Ly Lz Atoms 
       4            0   0.79016912            0   0.60117393   0.60117393    1.1681595 1.0878007e-12 -3.7236255e-12 -1.6735395e-13            0       -13.44       -13.44    66.430057         4.05         4.05    4.0499959        4 
       5            0   0.79016912 7.1048737e-05   0.60117393   0.60117393    1.1681595 2.4266323e-12 -6.5268042e-12 -2.8868557e-12            0       -13.44       -13.44    66.430057         4.05         4.05    4.0499959        4 
Loop time of 8.51154e-05 on 1 procs for 1 steps with 4 atoms

0.0% CPU use with 1 MPI tasks x no OpenMP threads

Minimization stats:
  Stopping criterion = force tolerance
  Energy initial, next-to-last, final = 
        -13.4400000916     -13.4400000916     -13.4400000916
  Force two-norm initial, final = 6.0608e-15 7.56048e-15
  Force max component initial, final = 4.92661e-15 4.97172e-15
  Final line search alpha, max atom move = 1 4.97172e-15
  Iterations, force evaluations = 1 2

MPI task timing breakdown:
Section |  min time  |  avg time  |  max time  |%varavg| %total
---------------------------------------------------------------
Pair    | 5.6982e-05 | 5.6982e-05 | 5.6982e-05 |   0.0 | 66.95
Neigh   | 0          | 0          | 0          |   0.0 |  0.00
Comm    | 5.9605e-06 | 5.9605e-06 | 5.9605e-06 |   0.0 |  7.00
Output  | 0          | 0          | 0          |   0.0 |  0.00
Modify  | 0          | 0          | 0          |   0.0 |  0.00
Other   |            | 2.217e-05  |            |       | 26.05

Nlocal:    4 ave 4 max 4 min
Histogram: 1 0 0 0 0 0 0 0 0 0
Nghost:    360 ave 360 max 360 min
Histogram: 1 0 0 0 0 0 0 0 0 0
Neighs:    268 ave 268 max 268 min
Histogram: 1 0 0 0 0 0 0 0 0 0

Total # of neighbors = 268
Ave neighs/atom = 67
Neighbor list builds = 0
Dangerous builds = 0
Reading restart file ...
  restart file = 13 Jan 2016, LAMMPS = 13 Jan 2016
  triclinic box = (-1.67941e-11 -1.67941e-11 -6.67945e-11) to (4.05 4.05 4.05) with tilt (0 0 0)
  1 by 1 by 1 MPI processor grid
  4 atoms
Changing box ...
  triclinic box = (-1.67941e-11 -1.67941e-11 -6.67945e-11) to (4.05 4.05 4.05) with tilt (0 0 0)
Neighbor list info ...
  1 neighbor list requests
  update every 1 steps, delay 0 steps, check yes
  max neighbors/atom: 2000, page size: 100000
  master list distance cutoff = 7.72488
  ghost atom cutoff = 7.72488
Setting up cg style minimization ...
  Unit style: metal
Memory usage per processor = 3.31879 Mbytes
Step Temp Press CPU Pxx Pyy Pzz Pxy Pxz Pyz KinEng PotEng TotEng Volume Lx Ly Lz Atoms 
       4            0  -0.79016372            0  -0.60117055  -0.60117055   -1.1681501 1.7362938e-12 -3.1797188e-12 3.2633956e-12            0       -13.44       -13.44     66.43019         4.05         4.05     4.050004        4 
       5            0  -0.79016372 7.1048737e-05  -0.60117055  -0.60117055   -1.1681501 1.7362938e-12 -3.1797188e-12 1.2551522e-12            0       -13.44       -13.44     66.43019         4.05         4.05     4.050004        4 
Loop time of 8.70228e-05 on 1 procs for 1 steps with 4 atoms

0.0% CPU use with 1 MPI tasks x no OpenMP threads

Minimization stats:
  Stopping criterion = quadratic factors are zero
  Energy initial, next-to-last, final = 
        -13.4400000916     -13.4400000916     -13.4400000916
  Force two-norm initial, final = 3.26646e-15 3.07308e-15
  Force max component initial, final = 2.62984e-15 2.36616e-15
  Final line search alpha, max atom move = 1 2.36616e-15
  Iterations, force evaluations = 1 2

MPI task timing breakdown:
Section |  min time  |  avg time  |  max time  |%varavg| %total
---------------------------------------------------------------
Pair    | 5.6982e-05 | 5.6982e-05 | 5.6982e-05 |   0.0 | 65.48
Neigh   | 0          | 0          | 0          |   0.0 |  0.00
Comm    | 5.9605e-06 | 5.9605e-06 | 5.9605e-06 |   0.0 |  6.85
Output  | 0          | 0          | 0          |   0.0 |  0.00
Modify  | 0          | 0          | 0          |   0.0 |  0.00
Other   |            | 2.408e-05  |            |       | 27.67

Nlocal:    4 ave 4 max 4 min
Histogram: 1 0 0 0 0 0 0 0 0 0
Nghost:    360 ave 360 max 360 min
Histogram: 1 0 0 0 0 0 0 0 0 0
Neighs:    268 ave 268 max 268 min
Histogram: 1 0 0 0 0 0 0 0 0 0

Total # of neighbors = 268
Ave neighs/atom = 67
Neighbor list builds = 0
Dangerous builds = 0
Reading restart file ...
  restart file = 13 Jan 2016, LAMMPS = 13 Jan 2016
  triclinic box = (-1.67941e-11 -1.67941e-11 -6.67945e-11) to (4.05 4.05 4.05) with tilt (0 0 0)
  1 by 1 by 1 MPI processor grid
  4 atoms
Changing box ...
  triclinic box = (-1.67941e-11 -1.67941e-11 -6.67945e-11) to (4.05 4.05 4.05) with tilt (0 0 -4.05e-06)
Neighbor list info ...
  1 neighbor list requests
  update every 1 steps, delay 0 steps, check yes
  max neighbors/atom: 2000, page size: 100000
  master list distance cutoff = 7.72488
  ghost atom cutoff = 7.72488
Setting up cg style minimization ...
  Unit style: metal
Memory usage per processor = 3.31879 Mbytes
Step Temp Press CPU Pxx Pyy Pzz Pxy Pxz Pyz KinEng PotEng TotEng Volume Lx Ly Lz Atoms 
       4            0 7.030644e-07            0 6.7303606e-08 8.4616895e-07 1.1957206e-06 -4.1838447e-14 -3.4516719e-12   0.31659621            0       -13.44       -13.44    66.430123         4.05         4.05         4.05        4 
       5            0 7.0293758e-07 7.1048737e-05 6.7167819e-08 8.4612477e-07 1.1955201e-06 -3.5458084e-12 -7.3217282e-13   0.31659621            0       -13.44       -13.44    66.430123         4.05         4.05         4.05        4 
Loop time of 8.39233e-05 on 1 procs for 1 steps with 4 atoms

0.0% CPU use with 1 MPI tasks x no OpenMP threads

Minimization stats:
  Stopping criterion = force tolerance
  Energy initial, next-to-last, final = 
        -13.4400000916     -13.4400000916     -13.4400000916
  Force two-norm initial, final = 5.22559e-15 2.7482e-15
  Force max component initial, final = 4.14946e-15 1.79717e-15
  Final line search alpha, max atom move = 1 1.79717e-15
  Iterations, force evaluations = 1 2

MPI task timing breakdown:
Section |  min time  |  avg time  |  max time  |%varavg| %total
---------------------------------------------------------------
Pair    | 5.6267e-05 | 5.6267e-05 | 5.6267e-05 |   0.0 | 67.05
Neigh   | 0          | 0          | 0          |   0.0 |  0.00
Comm    | 6.6757e-06 | 6.6757e-06 | 6.6757e-06 |   0.0 |  7.95
Output  | 0          | 0          | 0          |   0.0 |  0.00
Modify  | 0          | 0          | 0          |   0.0 |  0.00
Other   |            | 2.098e-05  |            |       | 25.00

Nlocal:    4 ave 4 max 4 min
Histogram: 1 0 0 0 0 0 0 0 0 0
Nghost:    360 ave 360 max 360 min
Histogram: 1 0 0 0 0 0 0 0 0 0
Neighs:    268 ave 268 max 268 min
Histogram: 1 0 0 0 0 0 0 0 0 0

Total # of neighbors = 268
Ave neighs/atom = 67
Neighbor list builds = 0
Dangerous builds = 0
Reading restart file ...
  restart file = 13 Jan 2016, LAMMPS = 13 Jan 2016
  triclinic box = (-1.67941e-11 -1.67941e-11 -6.67945e-11) to (4.05 4.05 4.05) with tilt (0 0 0)
  1 by 1 by 1 MPI processor grid
  4 atoms
Changing box ...
  triclinic box = (-1.67941e-11 -1.67941e-11 -6.67945e-11) to (4.05 4.05 4.05) with tilt (0 0 4.05e-06)
Neighbor list info ...
  1 neighbor list requests
  update every 1 steps, delay 0 steps, check yes
  max neighbors/atom: 2000, page size: 100000
  master list distance cutoff = 7.72488
  ghost atom cutoff = 7.72488
Setting up cg style minimization ...
  Unit style: metal
Memory usage per processor = 3.31879 Mbytes
Step Temp Press CPU Pxx Pyy Pzz Pxy Pxz Pyz KinEng PotEng TotEng Volume Lx Ly Lz Atoms 
       4            0 7.030784e-07            0 6.7300426e-08 8.4619104e-07 1.1957437e-06 2.7613375e-12 -1.6316994e-12  -0.31659621            0       -13.44       -13.44    66.430123         4.05         4.05         4.05        4 
       5            0 7.0296692e-07 7.0095062e-05 6.7167903e-08 8.4616853e-07 1.1955643e-06 -1.3597495e-12 -5.3134827e-12  -0.31659621            0       -13.44       -13.44    66.430123         4.05         4.05         4.05        4 
Loop time of 8.39233e-05 on 1 procs for 1 steps with 4 atoms

0.0% CPU use with 1 MPI tasks x no OpenMP threads

Minimization stats:
  Stopping criterion = force tolerance
  Energy initial, next-to-last, final = 
        -13.4400000916     -13.4400000916     -13.4400000916
  Force two-norm initial, final = 4.339e-15 2.55412e-15
  Force max component initial, final = 3.44863e-15 1.80758e-15
  Final line search alpha, max atom move = 1 1.80758e-15
  Iterations, force evaluations = 1 2

MPI task timing breakdown:
Section |  min time  |  avg time  |  max time  |%varavg| %total
---------------------------------------------------------------
Pair    | 5.6982e-05 | 5.6982e-05 | 5.6982e-05 |   0.0 | 67.90
Neigh   | 0          | 0          | 0          |   0.0 |  0.00
Comm    | 6.9141e-06 | 6.9141e-06 | 6.9141e-06 |   0.0 |  8.24
Output  | 0          | 0          | 0          |   0.0 |  0.00
Modify  | 0          | 0          | 0          |   0.0 |  0.00
Other   |            | 2.003e-05  |            |       | 23.86

Nlocal:    4 ave 4 max 4 min
Histogram: 1 0 0 0 0 0 0 0 0 0
Nghost:    360 ave 360 max 360 min
Histogram: 1 0 0 0 0 0 0 0 0 0
Neighs:    268 ave 268 max 268 min
Histogram: 1 0 0 0 0 0 0 0 0 0

Total # of neighbors = 268
Ave neighs/atom = 67
Neighbor list builds = 0
Dangerous builds = 0
Reading restart file ...
  restart file = 13 Jan 2016, LAMMPS = 13 Jan 2016
  triclinic box = (-1.67941e-11 -1.67941e-11 -6.67945e-11) to (4.05 4.05 4.05) with tilt (0 0 0)
  1 by 1 by 1 MPI processor grid
  4 atoms
Changing box ...
  triclinic box = (-1.67941e-11 -1.67941e-11 -6.67945e-11) to (4.05 4.05 4.05) with tilt (0 -4.05e-06 0)
Neighbor list info ...
  1 neighbor list requests
  update every 1 steps, delay 0 steps, check yes
  max neighbors/atom: 2000, page size: 100000
  master list distance cutoff = 7.72488
  ghost atom cutoff = 7.72488
Setting up cg style minimization ...
  Unit style: metal
Memory usage per processor = 3.31879 Mbytes
Step Temp Press CPU Pxx Pyy Pzz Pxy Pxz Pyz KinEng PotEng TotEng Volume Lx Ly Lz Atoms 
       4            0 7.0305195e-07            0 8.4617041e-07 6.7273838e-08 1.1957116e-06 -2.8031759e-12   0.31659621 -7.4054051e-12            0       -13.44       -13.44    66.430123         4.05         4.05         4.05        4 
       5            0 7.0303072e-07 6.9856644e-05 8.4614711e-07 6.7284318e-08 1.1956607e-06 -1.4643456e-12   0.31659621 1.6316994e-12            0       -13.44       -13.44    66.430123         4.05         4.05         4.05        4 
Loop time of 8.29697e-05 on 1 procs for 1 steps with 4 atoms

0.0% CPU use with 1 MPI tasks x no OpenMP threads

Minimization stats:
  Stopping criterion = force tolerance
  Energy initial, next-to-last, final = 
        -13.4400000916     -13.4400000916     -13.4400000916
  Force two-norm initial, final = 5.07116e-15 4.33521e-15
  Force max component initial, final = 4.06619e-15 3.45557e-15
  Final line search alpha, max atom move = 1 3.45557e-15
  Iterations, force evaluations = 1 2

MPI task timing breakdown:
Section |  min time  |  avg time  |  max time  |%varavg| %total
---------------------------------------------------------------
Pair    | 5.579e-05  | 5.579e-05  | 5.579e-05  |   0.0 | 67.24
Neigh   | 0          | 0          | 0          |   0.0 |  0.00
Comm    | 7.1526e-06 | 7.1526e-06 | 7.1526e-06 |   0.0 |  8.62
Output  | 0          | 0          | 0          |   0.0 |  0.00
Modify  | 0          | 0          | 0          |   0.0 |  0.00
Other   |            | 2.003e-05  |            |       | 24.14

Nlocal:    4 ave 4 max 4 min
Histogram: 1 0 0 0 0 0 0 0 0 0
Nghost:    360 ave 360 max 360 min
Histogram: 1 0 0 0 0 0 0 0 0 0
Neighs:    268 ave 268 max 268 min
Histogram: 1 0 0 0 0 0 0 0 0 0

Total # of neighbors = 268
Ave neighs/atom = 67
Neighbor list builds = 0
Dangerous builds = 0
Reading restart file ...
  restart file = 13 Jan 2016, LAMMPS = 13 Jan 2016
  triclinic box = (-1.67941e-11 -1.67941e-11 -6.67945e-11) to (4.05 4.05 4.05) with tilt (0 0 0)
  1 by 1 by 1 MPI processor grid
  4 atoms
Changing box ...
  triclinic box = (-1.67941e-11 -1.67941e-11 -6.67945e-11) to (4.05 4.05 4.05) with tilt (0 4.05e-06 0)
Neighbor list info ...
  1 neighbor list requests
  update every 1 steps, delay 0 steps, check yes
  max neighbors/atom: 2000, page size: 100000
  master list distance cutoff = 7.72488
  ghost atom cutoff = 7.72488
Setting up cg style minimization ...
  Unit style: metal
Memory usage per processor = 3.31879 Mbytes
Step Temp Press CPU Pxx Pyy Pzz Pxy Pxz Pyz KinEng PotEng TotEng Volume Lx Ly Lz Atoms 
       4            0 7.0320278e-07            0 8.4636653e-07 6.7448555e-08 1.1957933e-06 6.275767e-13  -0.31659621 2.5939837e-12            0       -13.44       -13.44    66.430123         4.05         4.05         4.05        4 
       5            0 7.0314309e-07 6.9141388e-05 8.463009e-07 6.7438618e-08 1.1956898e-06 3.3470757e-13  -0.31659621 3.3889142e-12            0       -13.44       -13.44    66.430123         4.05         4.05         4.05        4 
Loop time of 8.32081e-05 on 1 procs for 1 steps with 4 atoms

0.0% CPU use with 1 MPI tasks x no OpenMP threads

Minimization stats:
  Stopping criterion = force tolerance
  Energy initial, next-to-last, final = 
        -13.4400000916     -13.4400000916     -13.4400000916
  Force two-norm initial, final = 8.06014e-15 7.1669e-15
  Force max component initial, final = 4.39926e-15 3.26128e-15
  Final line search alpha, max atom move = 1 3.26128e-15
  Iterations, force evaluations = 1 2

MPI task timing breakdown:
Section |  min time  |  avg time  |  max time  |%varavg| %total
---------------------------------------------------------------
Pair    | 5.722e-05  | 5.722e-05  | 5.722e-05  |   0.0 | 68.77
Neigh   | 0          | 0          | 0          |   0.0 |  0.00
Comm    | 6.6757e-06 | 6.6757e-06 | 6.6757e-06 |   0.0 |  8.02
Output  | 0          | 0          | 0          |   0.0 |  0.00
Modify  | 0          | 0          | 0          |   0.0 |  0.00
Other   |            | 1.931e-05  |            |       | 23.21

Nlocal:    4 ave 4 max 4 min
Histogram: 1 0 0 0 0 0 0 0 0 0
Nghost:    360 ave 360 max 360 min
Histogram: 1 0 0 0 0 0 0 0 0 0
Neighs:    268 ave 268 max 268 min
Histogram: 1 0 0 0 0 0 0 0 0 0

Total # of neighbors = 268
Ave neighs/atom = 67
Neighbor list builds = 0
Dangerous builds = 0
Reading restart file ...
  restart file = 13 Jan 2016, LAMMPS = 13 Jan 2016
  triclinic box = (-1.67941e-11 -1.67941e-11 -6.67945e-11) to (4.05 4.05 4.05) with tilt (0 0 0)
  1 by 1 by 1 MPI processor grid
  4 atoms
Changing box ...
  triclinic box = (-1.67941e-11 -1.67941e-11 -6.67945e-11) to (4.05 4.05 4.05) with tilt (-4.05e-06 0 0)
Neighbor list info ...
  1 neighbor list requests
  update every 1 steps, delay 0 steps, check yes
  max neighbors/atom: 2000, page size: 100000
  master list distance cutoff = 7.72488
  ghost atom cutoff = 7.72488
Setting up cg style minimization ...
  Unit style: metal
Memory usage per processor = 3.31879 Mbytes
Step Temp Press CPU Pxx Pyy Pzz Pxy Pxz Pyz KinEng PotEng TotEng Volume Lx Ly Lz Atoms 
       4            0 7.0321869e-07            0 8.4638788e-07 1.1960598e-06 6.7208361e-08   0.31659621 1.6526187e-12 -1.1296381e-12            0       -13.44       -13.44    66.430123         4.05         4.05         4.05        4 
       5            0 7.030364e-07 6.9856644e-05 8.4627268e-07 1.1958778e-06 6.6958669e-08   0.31659621 -3.9746525e-13 5.0206136e-13            0       -13.44       -13.44    66.430123         4.05         4.05         4.05        4 
Loop time of 8.39233e-05 on 1 procs for 1 steps with 4 atoms

0.0% CPU use with 1 MPI tasks x no OpenMP threads

Minimization stats:
  Stopping criterion = force tolerance
  Energy initial, next-to-last, final = 
        -13.4400000916     -13.4400000916     -13.4400000916
  Force two-norm initial, final = 4.46354e-15 3.23236e-16
  Force max component initial, final = 3.55965e-15 1.63064e-16
  Final line search alpha, max atom move = 1 1.63064e-16
  Iterations, force evaluations = 1 2

MPI task timing breakdown:
Section |  min time  |  avg time  |  max time  |%varavg| %total
---------------------------------------------------------------
Pair    | 5.6982e-05 | 5.6982e-05 | 5.6982e-05 |   0.0 | 67.90
Neigh   | 0          | 0          | 0          |   0.0 |  0.00
Comm    | 6.9141e-06 | 6.9141e-06 | 6.9141e-06 |   0.0 |  8.24
Output  | 0          | 0          | 0          |   0.0 |  0.00
Modify  | 0          | 0          | 0          |   0.0 |  0.00
Other   |            | 2.003e-05  |            |       | 23.86

Nlocal:    4 ave 4 max 4 min
Histogram: 1 0 0 0 0 0 0 0 0 0
Nghost:    360 ave 360 max 360 min
Histogram: 1 0 0 0 0 0 0 0 0 0
Neighs:    268 ave 268 max 268 min
Histogram: 1 0 0 0 0 0 0 0 0 0

Total # of neighbors = 268
Ave neighs/atom = 67
Neighbor list builds = 0
Dangerous builds = 0
Reading restart file ...
  restart file = 13 Jan 2016, LAMMPS = 13 Jan 2016
  triclinic box = (-1.67941e-11 -1.67941e-11 -6.67945e-11) to (4.05 4.05 4.05) with tilt (0 0 0)
  1 by 1 by 1 MPI processor grid
  4 atoms
Changing box ...
  triclinic box = (-1.67941e-11 -1.67941e-11 -6.67945e-11) to (4.05 4.05 4.05) with tilt (4.05e-06 0 0)
Neighbor list info ...
  1 neighbor list requests
  update every 1 steps, delay 0 steps, check yes
  max neighbors/atom: 2000, page size: 100000
  master list distance cutoff = 7.72488
  ghost atom cutoff = 7.72488
Setting up cg style minimization ...
  Unit style: metal
Memory usage per processor = 3.31879 Mbytes
Step Temp Press CPU Pxx Pyy Pzz Pxy Pxz Pyz KinEng PotEng TotEng Volume Lx Ly Lz Atoms 
       4            0 7.0318514e-07            0 8.4633076e-07 1.1960645e-06 6.7160163e-08  -0.31659621 -2.3910672e-11 4.1838447e-14            0       -13.44       -13.44    66.430123         4.05         4.05         4.05        4 
       5            0 7.0308149e-07 7.0095062e-05 8.4632829e-07 1.195904e-06 6.7012222e-08  -0.31659621 2.8240952e-12 -2.6776606e-12            0       -13.44       -13.44    66.430123         4.05         4.05         4.05        4 
Loop time of 8.39233e-05 on 1 procs for 1 steps with 4 atoms

0.0% CPU use with 1 MPI tasks x no OpenMP threads

Minimization stats:
  Stopping criterion = force tolerance
  Energy initial, next-to-last, final = 
        -13.4400000916     -13.4400000916     -13.4400000916
  Force two-norm initial, final = 3.88025e-15 1.59908e-15
  Force max component initial, final = 2.89352e-15 1.16573e-15
  Final line search alpha, max atom move = 1 1.16573e-15
  Iterations, force evaluations = 1 2

MPI task timing breakdown:
Section |  min time  |  avg time  |  max time  |%varavg| %total
---------------------------------------------------------------
Pair    | 5.6982e-05 | 5.6982e-05 | 5.6982e-05 |   0.0 | 67.90
Neigh   | 0          | 0          | 0          |   0.0 |  0.00
Comm    | 6.9141e-06 | 6.9141e-06 | 6.9141e-06 |   0.0 |  8.24
Output  | 0          | 0          | 0          |   0.0 |  0.00
Modify  | 0          | 0          | 0          |   0.0 |  0.00
Other   |            | 2.003e-05  |            |       | 23.86

Nlocal:    4 ave 4 max 4 min
Histogram: 1 0 0 0 0 0 0 0 0 0
Nghost:    360 ave 360 max 360 min
Histogram: 1 0 0 0 0 0 0 0 0 0
Neighs:    268 ave 268 max 268 min
Histogram: 1 0 0 0 0 0 0 0 0 0

Total # of neighbors = 268
Ave neighs/atom = 67
Neighbor list builds = 0
Dangerous builds = 0
Elastic Constant C11all = 116.815477495868 GPa
Elastic Constant C22all = 116.8154775044 GPa
Elastic Constant C33all = 116.815477497591 GPa
Elastic Constant C12all = 60.1172244823024 GPa
Elastic Constant C13all = 60.1172244641824 GPa
Elastic Constant C23all = 60.1172244662763 GPa
Elastic Constant C44all = 31.6596214394687 GPa
Elastic Constant C55all = 31.6596214379563 GPa
Elastic Constant C66all = 31.6596214493876 GPa
Elastic Constant C14all = 7.32173823997825e-11 GPa
Elastic Constant C15all = -3.95972892899691e-09 GPa
Elastic Constant C16all = -1.35668158947376e-09 GPa
Elastic Constant C24all = -1.02504189134079e-09 GPa
Elastic Constant C25all = -3.66661700871237e-09 GPa
Elastic Constant C26all = -7.21974668797592e-10 GPa
Elastic Constant C34all = -1.20808519374682e-09 GPa
Elastic Constant C35all = -8.09574189112912e-10 GPa
Elastic Constant C36all = -1.32157183580136e-09 GPa
Elastic Constant C45all = 7.06023790593167e-11 GPa
Elastic Constant C46all = 2.48415778171675e-11 GPa
Elastic Constant C56all = -1.25515340549897e-10 GPa
Total wall time: 0:00:00
