datafile (written by JARVIS-FF) 

256 	 atoms 
1  atom types
0.0 16.199999870  xlo xhi
0.0 16.199999870  ylo yhi
0.0 16.199999869  zlo zhi
0E-9 0E-9 0E-9  xy xz yz


Atoms 

     1   1 0.000000 16.204464733 16.194464733 16.194464733
     2   1 0.000000 4.044464830 16.194464733 16.194464733
     3   1 0.000000 8.094464798 16.194464733 16.194464733
     4   1 0.000000 12.144464765 16.194464733 16.194464733
     5   1 0.000000 16.194464733 4.044464830 16.194464733
     6   1 0.000000 4.044464830 4.044464830 16.194464733
     7   1 0.000000 8.094464798 4.044464830 16.194464733
     8   1 0.000000 12.144464765 4.044464830 16.194464733
     9   1 0.000000 16.194464733 8.094464798 16.194464733
    10   1 0.000000 4.044464830 8.094464798 16.194464733
    11   1 0.000000 8.094464798 8.094464798 16.194464733
    12   1 0.000000 12.144464765 8.094464798 16.194464733
    13   1 0.000000 16.194464733 12.144464765 16.194464733
    14   1 0.000000 4.044464830 12.144464765 16.194464733
    15   1 0.000000 8.094464798 12.144464765 16.194464733
    16   1 0.000000 12.144464765 12.144464765 16.194464733
    17   1 0.000000 16.194464733 16.194464733 4.044464830
    18   1 0.000000 4.044464830 16.194464733 4.044464830
    19   1 0.000000 8.094464798 16.194464733 4.044464830
    20   1 0.000000 12.144464765 16.194464733 4.044464830
    21   1 0.000000 16.194464733 4.044464830 4.044464830
    22   1 0.000000 4.044464830 4.044464830 4.044464830
    23   1 0.000000 8.094464798 4.044464830 4.044464830
    24   1 0.000000 12.144464765 4.044464830 4.044464830
    25   1 0.000000 16.194464733 8.094464798 4.044464830
    26   1 0.000000 4.044464830 8.094464798 4.044464830
    27   1 0.000000 8.094464798 8.094464798 4.044464830
    28   1 0.000000 12.144464765 8.094464798 4.044464830
    29   1 0.000000 16.194464733 12.144464765 4.044464830
    30   1 0.000000 4.044464830 12.144464765 4.044464830
    31   1 0.000000 8.094464798 12.144464765 4.044464830
    32   1 0.000000 12.144464765 12.144464765 4.044464830
    33   1 0.000000 16.194464733 16.194464733 8.094464798
    34   1 0.000000 4.044464830 16.194464733 8.094464798
    35   1 0.000000 8.094464798 16.194464733 8.094464798
    36   1 0.000000 12.144464765 16.194464733 8.094464798
    37   1 0.000000 16.194464733 4.044464830 8.094464798
    38   1 0.000000 4.044464830 4.044464830 8.094464798
    39   1 0.000000 8.094464798 4.044464830 8.094464798
    40   1 0.000000 12.144464765 4.044464830 8.094464798
    41   1 0.000000 16.194464733 8.094464798 8.094464798
    42   1 0.000000 4.044464830 8.094464798 8.094464798
    43   1 0.000000 8.094464798 8.094464798 8.094464798
    44   1 0.000000 12.144464765 8.094464798 8.094464798
    45   1 0.000000 16.194464733 12.144464765 8.094464798
    46   1 0.000000 4.044464830 12.144464765 8.094464798
    47   1 0.000000 8.094464798 12.144464765 8.094464798
    48   1 0.000000 12.144464765 12.144464765 8.094464798
    49   1 0.000000 16.194464733 16.194464733 12.144464765
    50   1 0.000000 4.044464830 16.194464733 12.144464765
    51   1 0.000000 8.094464798 16.194464733 12.144464765
    52   1 0.000000 12.144464765 16.194464733 12.144464765
    53   1 0.000000 16.194464733 4.044464830 12.144464765
    54   1 0.000000 4.044464830 4.044464830 12.144464765
    55   1 0.000000 8.094464798 4.044464830 12.144464765
    56   1 0.000000 12.144464765 4.044464830 12.144464765
    57   1 0.000000 16.194464733 8.094464798 12.144464765
    58   1 0.000000 4.044464830 8.094464798 12.144464765
    59   1 0.000000 8.094464798 8.094464798 12.144464765
    60   1 0.000000 12.144464765 8.094464798 12.144464765
    61   1 0.000000 16.194464733 12.144464765 12.144464765
    62   1 0.000000 4.044464830 12.144464765 12.144464765
    63   1 0.000000 8.094464798 12.144464765 12.144464765
    64   1 0.000000 12.144464765 12.144464765 12.144464765
    65   1 0.000000 16.194464733 2.019464847 2.019464847
    66   1 0.000000 4.044464830 2.019464847 2.019464847
    67   1 0.000000 8.094464798 2.019464847 2.019464847
    68   1 0.000000 12.144464765 2.019464847 2.019464847
    69   1 0.000000 16.194464733 6.069464814 2.019464847
    70   1 0.000000 4.044464830 6.069464814 2.019464847
    71   1 0.000000 8.094464798 6.069464814 2.019464847
    72   1 0.000000 12.144464765 6.069464814 2.019464847
    73   1 0.000000 16.194464733 10.119464782 2.019464847
    74   1 0.000000 4.044464830 10.119464782 2.019464847
    75   1 0.000000 8.094464798 10.119464782 2.019464847
    76   1 0.000000 12.144464765 10.119464782 2.019464847
    77   1 0.000000 16.194464733 14.169464749 2.019464847
    78   1 0.000000 4.044464830 14.169464749 2.019464847
    79   1 0.000000 8.094464798 14.169464749 2.019464847
    80   1 0.000000 12.144464765 14.169464749 2.019464847
    81   1 0.000000 16.194464733 2.019464847 6.069464814
    82   1 0.000000 4.044464830 2.019464847 6.069464814
    83   1 0.000000 8.094464798 2.019464847 6.069464814
    84   1 0.000000 12.144464765 2.019464847 6.069464814
    85   1 0.000000 16.194464733 6.069464814 6.069464814
    86   1 0.000000 4.044464830 6.069464814 6.069464814
    87   1 0.000000 8.094464798 6.069464814 6.069464814
    88   1 0.000000 12.144464765 6.069464814 6.069464814
    89   1 0.000000 16.194464733 10.119464782 6.069464814
    90   1 0.000000 4.044464830 10.119464782 6.069464814
    91   1 0.000000 8.094464798 10.119464782 6.069464814
    92   1 0.000000 12.144464765 10.119464782 6.069464814
    93   1 0.000000 16.194464733 14.169464749 6.069464814
    94   1 0.000000 4.044464830 14.169464749 6.069464814
    95   1 0.000000 8.094464798 14.169464749 6.069464814
    96   1 0.000000 12.144464765 14.169464749 6.069464814
    97   1 0.000000 16.194464733 2.019464847 10.119464782
    98   1 0.000000 4.044464830 2.019464847 10.119464782
    99   1 0.000000 8.094464798 2.019464847 10.119464782
   100   1 0.000000 12.144464765 2.019464847 10.119464782
   101   1 0.000000 16.194464733 6.069464814 10.119464782
   102   1 0.000000 4.044464830 6.069464814 10.119464782
   103   1 0.000000 8.094464798 6.069464814 10.119464782
   104   1 0.000000 12.144464765 6.069464814 10.119464782
   105   1 0.000000 16.194464733 10.119464782 10.119464782
   106   1 0.000000 4.044464830 10.119464782 10.119464782
   107   1 0.000000 8.094464798 10.119464782 10.119464782
   108   1 0.000000 12.144464765 10.119464782 10.119464782
   109   1 0.000000 16.194464733 14.169464749 10.119464782
   110   1 0.000000 4.044464830 14.169464749 10.119464782
   111   1 0.000000 8.094464798 14.169464749 10.119464782
   112   1 0.000000 12.144464765 14.169464749 10.119464782
   113   1 0.000000 16.194464733 2.019464847 14.169464749
   114   1 0.000000 4.044464830 2.019464847 14.169464749
   115   1 0.000000 8.094464798 2.019464847 14.169464749
   116   1 0.000000 12.144464765 2.019464847 14.169464749
   117   1 0.000000 16.194464733 6.069464814 14.169464749
   118   1 0.000000 4.044464830 6.069464814 14.169464749
   119   1 0.000000 8.094464798 6.069464814 14.169464749
   120   1 0.000000 12.144464765 6.069464814 14.169464749
   121   1 0.000000 16.194464733 10.119464782 14.169464749
   122   1 0.000000 4.044464830 10.119464782 14.169464749
   123   1 0.000000 8.094464798 10.119464782 14.169464749
   124   1 0.000000 12.144464765 10.119464782 14.169464749
   125   1 0.000000 16.194464733 14.169464749 14.169464749
   126   1 0.000000 4.044464830 14.169464749 14.169464749
   127   1 0.000000 8.094464798 14.169464749 14.169464749
   128   1 0.000000 12.144464765 14.169464749 14.169464749
   129   1 0.000000 2.019464847 16.194464733 2.019464847
   130   1 0.000000 6.069464814 16.194464733 2.019464847
   131   1 0.000000 10.119464782 16.194464733 2.019464847
   132   1 0.000000 14.169464749 16.194464733 2.019464847
   133   1 0.000000 2.019464847 4.044464830 2.019464847
   134   1 0.000000 6.069464814 4.044464830 2.019464847
   135   1 0.000000 10.119464782 4.044464830 2.019464847
   136   1 0.000000 14.169464749 4.044464830 2.019464847
   137   1 0.000000 2.019464847 8.094464798 2.019464847
   138   1 0.000000 6.069464814 8.094464798 2.019464847
   139   1 0.000000 10.119464782 8.094464798 2.019464847
   140   1 0.000000 14.169464749 8.094464798 2.019464847
   141   1 0.000000 2.019464847 12.144464765 2.019464847
   142   1 0.000000 6.069464814 12.144464765 2.019464847
   143   1 0.000000 10.119464782 12.144464765 2.019464847
   144   1 0.000000 14.169464749 12.144464765 2.019464847
   145   1 0.000000 2.019464847 16.194464733 6.069464814
   146   1 0.000000 6.069464814 16.194464733 6.069464814
   147   1 0.000000 10.119464782 16.194464733 6.069464814
   148   1 0.000000 14.169464749 16.194464733 6.069464814
   149   1 0.000000 2.019464847 4.044464830 6.069464814
   150   1 0.000000 6.069464814 4.044464830 6.069464814
   151   1 0.000000 10.119464782 4.044464830 6.069464814
   152   1 0.000000 14.169464749 4.044464830 6.069464814
   153   1 0.000000 2.019464847 8.094464798 6.069464814
   154   1 0.000000 6.069464814 8.094464798 6.069464814
   155   1 0.000000 10.119464782 8.094464798 6.069464814
   156   1 0.000000 14.169464749 8.094464798 6.069464814
   157   1 0.000000 2.019464847 12.144464765 6.069464814
   158   1 0.000000 6.069464814 12.144464765 6.069464814
   159   1 0.000000 10.119464782 12.144464765 6.069464814
   160   1 0.000000 14.169464749 12.144464765 6.069464814
   161   1 0.000000 2.019464847 16.194464733 10.119464782
   162   1 0.000000 6.069464814 16.194464733 10.119464782
   163   1 0.000000 10.119464782 16.194464733 10.119464782
   164   1 0.000000 14.169464749 16.194464733 10.119464782
   165   1 0.000000 2.019464847 4.044464830 10.119464782
   166   1 0.000000 6.069464814 4.044464830 10.119464782
   167   1 0.000000 10.119464782 4.044464830 10.119464782
   168   1 0.000000 14.169464749 4.044464830 10.119464782
   169   1 0.000000 2.019464847 8.094464798 10.119464782
   170   1 0.000000 6.069464814 8.094464798 10.119464782
   171   1 0.000000 10.119464782 8.094464798 10.119464782
   172   1 0.000000 14.169464749 8.094464798 10.119464782
   173   1 0.000000 2.019464847 12.144464765 10.119464782
   174   1 0.000000 6.069464814 12.144464765 10.119464782
   175   1 0.000000 10.119464782 12.144464765 10.119464782
   176   1 0.000000 14.169464749 12.144464765 10.119464782
   177   1 0.000000 2.019464847 16.194464733 14.169464749
   178   1 0.000000 6.069464814 16.194464733 14.169464749
   179   1 0.000000 10.119464782 16.194464733 14.169464749
   180   1 0.000000 14.169464749 16.194464733 14.169464749
   181   1 0.000000 2.019464847 4.044464830 14.169464749
   182   1 0.000000 6.069464814 4.044464830 14.169464749
   183   1 0.000000 10.119464782 4.044464830 14.169464749
   184   1 0.000000 14.169464749 4.044464830 14.169464749
   185   1 0.000000 2.019464847 8.094464798 14.169464749
   186   1 0.000000 6.069464814 8.094464798 14.169464749
   187   1 0.000000 10.119464782 8.094464798 14.169464749
   188   1 0.000000 14.169464749 8.094464798 14.169464749
   189   1 0.000000 2.019464847 12.144464765 14.169464749
   190   1 0.000000 6.069464814 12.144464765 14.169464749
   191   1 0.000000 10.119464782 12.144464765 14.169464749
   192   1 0.000000 14.169464749 12.144464765 14.169464749
   193   1 0.000000 2.019464847 2.019464847 16.194464733
   194   1 0.000000 6.069464814 2.019464847 16.194464733
   195   1 0.000000 10.119464782 2.019464847 16.194464733
   196   1 0.000000 14.169464749 2.019464847 16.194464733
   197   1 0.000000 2.019464847 6.069464814 16.194464733
   198   1 0.000000 6.069464814 6.069464814 16.194464733
   199   1 0.000000 10.119464782 6.069464814 16.194464733
   200   1 0.000000 14.169464749 6.069464814 16.194464733
   201   1 0.000000 2.019464847 10.119464782 16.194464733
   202   1 0.000000 6.069464814 10.119464782 16.194464733
   203   1 0.000000 10.119464782 10.119464782 16.194464733
   204   1 0.000000 14.169464749 10.119464782 16.194464733
   205   1 0.000000 2.019464847 14.169464749 16.194464733
   206   1 0.000000 6.069464814 14.169464749 16.194464733
   207   1 0.000000 10.119464782 14.169464749 16.194464733
   208   1 0.000000 14.169464749 14.169464749 16.194464733
   209   1 0.000000 2.019464847 2.019464847 4.044464830
   210   1 0.000000 6.069464814 2.019464847 4.044464830
   211   1 0.000000 10.119464782 2.019464847 4.044464830
   212   1 0.000000 14.169464749 2.019464847 4.044464830
   213   1 0.000000 2.019464847 6.069464814 4.044464830
   214   1 0.000000 6.069464814 6.069464814 4.044464830
   215   1 0.000000 10.119464782 6.069464814 4.044464830
   216   1 0.000000 14.169464749 6.069464814 4.044464830
   217   1 0.000000 2.019464847 10.119464782 4.044464830
   218   1 0.000000 6.069464814 10.119464782 4.044464830
   219   1 0.000000 10.119464782 10.119464782 4.044464830
   220   1 0.000000 14.169464749 10.119464782 4.044464830
   221   1 0.000000 2.019464847 14.169464749 4.044464830
   222   1 0.000000 6.069464814 14.169464749 4.044464830
   223   1 0.000000 10.119464782 14.169464749 4.044464830
   224   1 0.000000 14.169464749 14.169464749 4.044464830
   225   1 0.000000 2.019464847 2.019464847 8.094464798
   226   1 0.000000 6.069464814 2.019464847 8.094464798
   227   1 0.000000 10.119464782 2.019464847 8.094464798
   228   1 0.000000 14.169464749 2.019464847 8.094464798
   229   1 0.000000 2.019464847 6.069464814 8.094464798
   230   1 0.000000 6.069464814 6.069464814 8.094464798
   231   1 0.000000 10.119464782 6.069464814 8.094464798
   232   1 0.000000 14.169464749 6.069464814 8.094464798
   233   1 0.000000 2.019464847 10.119464782 8.094464798
   234   1 0.000000 6.069464814 10.119464782 8.094464798
   235   1 0.000000 10.119464782 10.119464782 8.094464798
   236   1 0.000000 14.169464749 10.119464782 8.094464798
   237   1 0.000000 2.019464847 14.169464749 8.094464798
   238   1 0.000000 6.069464814 14.169464749 8.094464798
   239   1 0.000000 10.119464782 14.169464749 8.094464798
   240   1 0.000000 14.169464749 14.169464749 8.094464798
   241   1 0.000000 2.019464847 2.019464847 12.144464765
   242   1 0.000000 6.069464814 2.019464847 12.144464765
   243   1 0.000000 10.119464782 2.019464847 12.144464765
   244   1 0.000000 14.169464749 2.019464847 12.144464765
   245   1 0.000000 2.019464847 6.069464814 12.144464765
   246   1 0.000000 6.069464814 6.069464814 12.144464765
   247   1 0.000000 10.119464782 6.069464814 12.144464765
   248   1 0.000000 14.169464749 6.069464814 12.144464765
   249   1 0.000000 2.019464847 10.119464782 12.144464765
   250   1 0.000000 6.069464814 10.119464782 12.144464765
   251   1 0.000000 10.119464782 10.119464782 12.144464765
   252   1 0.000000 14.169464749 10.119464782 12.144464765
   253   1 0.000000 2.019464847 14.169464749 12.144464765
   254   1 0.000000 6.069464814 14.169464749 12.144464765
   255   1 0.000000 10.119464782 14.169464749 12.144464765
   256   1 0.000000 14.169464749 14.169464749 12.144464765
