
             +---------------------------------------------------+
             |                                                   |
             |                   WANNIER90                       |
             |                                                   |
             +---------------------------------------------------+
             |                                                   |
             |        Welcome to the Maximally-Localized         |
             |        Generalized Wannier Functions code         |
             |            http://www.wannier.org                 |
             |                                                   |
             |  Wannier90 Authors:                               |
             |    Arash A. Mostofi   (Imperial College London)   |
             |    Jonathan R. Yates  (University of Oxford)      |
             |    Young-Su Lee       (KIST, S. Korea)            |
             |                                                   |
             |  Wannier90 Contributors:                          |
             |    Matthew Shelley    (Imperial College London)   |
             |    Nicolas Poilvert   (MIT)                       |
             |                                                   |
             |  Wannier77 Authors:                               |
             |    Nicola Marzari     (University of Oxford)      |
             |    Ivo Souza          (UC Berkeley)               |
             |    David Vanderbilt   (Rutgers University)        |
             |                                                   |
             |  Please cite                                      |
             |                                                   |
             |  [ref] "Wannier90: A Tool for Obtaining Maximally |
             |         Localised Wannier Functions"              |
             |        A. A. Mostofi, J. R. Yates, Y.-S. Lee,     |
             |        I. Souza, D. Vanderbilt and N. Marzari     |
             |        Comput. Phys. Commun. 178, 685 (2008)      |
             |                                                   |
             |  in any publications arising from the use of      |
             |  this code. For the method please cite            |
             |                                                   |
             |  [ref] "Maximally Localized Generalised Wannier   |
             |         Functions for Composite Energy Bands"     |
             |         N. Marzari and D. Vanderbilt              |
             |         Phys. Rev. B 56 12847 (1997)              |
             |                                                   |
             |  [ref] "Maximally Localized Wannier Functions     |
             |         for Entangled Energy Bands"               |
             |         I. Souza, N. Marzari and D. Vanderbilt    |
             |         Phys. Rev. B 65 035109 (2001)             |
             |                                                   |
             |                                                   |
             | Copyright (c) 1996-2010                           |
             |        A. A. Mostofi, J. R. Yates, Y.-S. Lee,     |
             |        I. Souza, D. Vanderbilt and N. Marzari     |
             |                                                   |
             |        Release: 1.2        24th Jan 2010          |
             |                                                   |
             | This program is free software; you can            |
             | redistribute it and/or modify it under the terms  |
             | of the GNU General Public License as published by |
             | the Free Software Foundation; either version 2 of |
             | the License, or (at your option) any later version|
             |                                                   |
             | This program is distributed in the hope that it   |
             | will be useful, but WITHOUT ANY WARRANTY; without |
             | even the implied warranty of MERCHANTABILITY or   |
             | FITNESS FOR A PARTICULAR PURPOSE. See the GNU     |
             | General Public License for more details.          |
             |                                                   |
             | You should have received a copy of the GNU General|
             | Public License along with this program; if not,   |
             | write to the Free Software Foundation, Inc.,      |
             | 675 Mass Ave, Cambridge, MA 02139, USA.           |
             |                                                   |
             +---------------------------------------------------+
             |    Execution started on 20Apr2019 at 23:49:17     |
             +---------------------------------------------------+

                                    ------
                                    SYSTEM
                                    ------

                              Lattice Vectors (Ang)
                    a_1     4.113792   0.008072   9.142179
                    a_2     1.968617   3.612187   9.142179
                    a_3     0.013562   0.008072  10.025095

                   Unit Cell Volume:     148.20630  (Ang^3)

                        Reciprocal-Space Vectors (Ang^-1)
                    b_1     1.532096  -0.831430  -0.001403
                    b_2    -0.000302   1.743157  -0.001403
                    b_3    -1.396888  -0.831430   0.629305
  
 *----------------------------------------------------------------------------*
 |   Site       Fractional Coordinate          Cartesian Coordinate (Ang)     |
 +----------------------------------------------------------------------------+
 | Bi   1   0.40000   0.40000   0.40000   |    2.43836   1.45132  11.32367    |
 | Bi   2   0.60000   0.60000   0.60000   |    3.65761   2.17701  16.98578    |
 | Se   1   0.00000   0.00000   0.00000   |    0.00000   0.00000   0.00000    |
 | Se   2   0.21277   0.21277   0.21277   |    1.29705   0.77201   6.02346    |
 | Se   3   0.78723   0.78723   0.78723   |    4.79892   2.85632  22.28599    |
 *----------------------------------------------------------------------------*
  
                                ------------
                                K-POINT GRID
                                ------------
  
             Grid size =  6 x  6 x  6      Total points =  216
  
  
 *---------------------------------- MAIN ------------------------------------*
 |  Number of Wannier Functions               :                40             |
 |  Number of input Bloch states              :                48             |
 |  Output verbosity (1=low, 5=high)          :                 1             |
 |  Timing Level (1=low, 5=high)              :                 1             |
 |  Optimisation (0=memory, 3=speed)          :                 3             |
 |  Length Unit                               :               Ang             |
 |  Post-processing setup (write *.nnkp)      :                 F             |
 |  Using Gamma-only branch of algorithms     :                 F             |
 *----------------------------------------------------------------------------*
 *------------------------------- WANNIERISE ---------------------------------*
 |  Total number of iterations                :               100             |
 |  Number of CG steps before reset           :                 5             |
 |  Trial step length for line search         :             2.000             |
 |  Convergence tolerence                     :         0.100E-09             |
 |  Convergence window                        :                -1             |
 |  Iterations between writing output         :                50             |
 |  Iterations between backing up to disk     :               100             |
 |  Write r^2_nm to file                      :                 F             |
 |  Write xyz WF centres to file              :                 F             |
 |  Use guiding centre to control phases      :                 T             |
 |  Iterations before starting guiding centres:                 0             |
 |  Iterations between using guiding centres  :                 1             |
 *----------------------------------------------------------------------------*
 *------------------------------- DISENTANGLE --------------------------------*
 |  Using band disentanglement                :                 T             |
 |  Total number of iterations                :               100             |
 |  Mixing ratio                              :             0.500             |
 |  Convergence tolerence                     :         1.000E-10             |
 |  Convergence window                        :                 3             |
 *----------------------------------------------------------------------------*
 *-------------------------------- PLOTTING ----------------------------------*
 |  Plotting Hamiltonian in WF basis          :                 T             |
 *----------------------------------------------------------------------------*
 Time to read parameters        0.032 (sec)

 *---------------------------------- K-MESH ----------------------------------*
 +----------------------------------------------------------------------------+
 |                    Distance to Nearest-Neighbour Shells                    |
 |                    ------------------------------------                    |
 |          Shell             Distance (Ang^-1)          Multiplicity         |
 |          -----             -----------------          ------------         |
 |             1                   0.107645                      2            |
 |             2                   0.215290                      2            |
 |             3                   0.290526                      2            |
 |             4                   0.290526                      2            |
 |             5                   0.290526                      2            |
 |             6                   0.297099                      2            |
 |             7                   0.297099                      2            |
 |             8                   0.297099                      2            |
 |             9                   0.322053                      2            |
 |            10                   0.322053                      2            |
 |            11                   0.322053                      2            |
 |            12                   0.322935                      2            |
 +----------------------------------------------------------------------------+
 | The b-vectors are chosen automatically                                     |
 | The following shells are used:   1,  3,  4,  5,  6,  7                     |
 +----------------------------------------------------------------------------+
 |                        Shell   # Nearest-Neighbours                        |
 |                        -----   --------------------                        |
 |                          1               2                                 |
 |                          3               2                                 |
 |                          4               2                                 |
 |                          5               2                                 |
 |                          6               2                                 |
 |                          7               2                                 |
 +----------------------------------------------------------------------------+
 | Completeness relation is fully satisfied [Eq. (B1), PRB 56, 12847 (1997)]  |
 +----------------------------------------------------------------------------+
 |                  b_k Vectors (Ang^-1) and Weights (Ang^2)                  |
 |                  ----------------------------------------                  |
 |            No.         b_k(x)      b_k(y)      b_k(z)        w_b           |
 |            ---        --------------------------------     --------        |
 |             1         0.022484    0.013383    0.104416    41.813410        |
 |             2        -0.022484   -0.013383   -0.104416    41.813410        |
 |             3        -0.232815   -0.138572    0.104884     4.010363        |
 |             4         0.232815    0.138572   -0.104884     4.010363        |
 |             5         0.255349   -0.138572   -0.000234     4.010363        |
 |             6        -0.255349    0.138572    0.000234     4.010363        |
 |             7        -0.000050    0.290526   -0.000234     4.010363        |
 |             8         0.000050   -0.290526    0.000234     4.010363        |
 |             9         0.255299    0.151954   -0.000468     0.000003        |
 |            10        -0.255299   -0.151954    0.000468     0.000003        |
 |            11        -0.232865    0.151954    0.104650    -0.000000        |
 |            12         0.232865   -0.151954   -0.104650    -0.000000        |
 +----------------------------------------------------------------------------+
 |                           b_k Directions (Ang^-1)                          |
 |                           -----------------------                          |
 |            No.           x           y           z                         |
 |            ---        --------------------------------                     |
 |             1         0.022484    0.013383    0.104416                     |
 |             2        -0.232815   -0.138572    0.104884                     |
 |             3         0.255349   -0.138572   -0.000234                     |
 |             4        -0.000050    0.290526   -0.000234                     |
 |             5         0.255299    0.151954   -0.000468                     |
 |             6        -0.232865    0.151954    0.104650                     |
 +----------------------------------------------------------------------------+
  
 *============================================================================*
 |                              MEMORY ESTIMATE                               |
 |         Maximum RAM allocated during each phase of the calculation         |
 *============================================================================*
 |                        Disentanglement          172.71 Mb                  |
 |                            Wannierise:          158.28 Mb                  |
 *----------------------------------------------------------------------------*
  
 Starting a new Wannier90 calculation ...

 Time to get kmesh              0.332 (sec)

 Reading overlaps from wannier90.mmn    : File generated by VASP: unknown system

 Reading projections from wannier90.amn : File generated by VASP: unknown system

 Time to read overlaps          7.172 (sec)

 *------------------------------- DISENTANGLE --------------------------------*
 +----------------------------------------------------------------------------+
 |                              Energy  Windows                               |
 |                              ---------------                               |
 |                   Outer:  -10.18845  to   13.28439  (eV)                   |
 |                   No frozen states were specified                          |
 +----------------------------------------------------------------------------+
   Number of target bands to extract:   40

                   Unitarised projection of Wannier functions                  
                   ------------------------------------------                  
   A_mn = <psi_m|g_n> --> S = A.A^+ --> U = S^-1/2.A
   In dis_project... done
   No inner window (linner = F)

                   Extraction of optimally-connected subspace                  
                   ------------------------------------------                  
 +---------------------------------------------------------------------+<-- DIS
 |  Iter     Omega_I(i-1)      Omega_I(i)      Delta (frac.)    Time   |<-- DIS
 +---------------------------------------------------------------------+<-- DIS
       1      64.58286758      61.47783524       5.051E-02      9.77    <-- DIS
       2      62.89628745      60.56648805       3.847E-02     11.49    <-- DIS
       3      61.65533658      60.00253492       2.755E-02     13.21    <-- DIS
       4      60.77242977      59.57716414       2.006E-02     14.93    <-- DIS
       5      60.13051013      59.24130206       1.501E-02     16.65    <-- DIS
       6      59.65016772      58.96880629       1.155E-02     18.37    <-- DIS
       7      59.28001828      58.74316751       9.139E-03     20.09    <-- DIS
       8      58.98688154      58.55332025       7.405E-03     21.96    <-- DIS
       9      58.74910012      58.39154420       6.123E-03     23.71    <-- DIS
      10      58.55228227      58.25227229       5.150E-03     25.44    <-- DIS
      11      58.38664544      58.13137461       4.391E-03     27.17    <-- DIS
      12      58.24536809      58.02571092       3.786E-03     28.90    <-- DIS
      13      58.12356410      57.93284133       3.292E-03     30.63    <-- DIS
      14      58.01763885      57.85083387       2.883E-03     32.36    <-- DIS
      15      57.92487947      57.77813306       2.540E-03     34.08    <-- DIS
      16      57.84318977      57.71346810       2.248E-03     35.81    <-- DIS
      17      57.77091539      57.65578741       1.997E-03     37.54    <-- DIS
      18      57.70672604      57.60421098       1.780E-03     39.27    <-- DIS
      19      57.64953459      57.55799514       1.590E-03     41.00    <-- DIS
      20      57.59844007      57.51650603       1.425E-03     42.72    <-- DIS
      21      57.55268683      57.47919942       1.279E-03     44.45    <-- DIS
      22      57.51163459      57.44560496       1.149E-03     46.19    <-- DIS
      23      57.47473605      57.41531386       1.035E-03     48.00    <-- DIS
      24      57.44151996      57.38796914       9.331E-04     49.78    <-- DIS
      25      57.41157787      57.36325772       8.424E-04     51.53    <-- DIS
      26      57.38455390      57.34090398       7.612E-04     53.26    <-- DIS
      27      57.36013647      57.32066452       6.886E-04     55.00    <-- DIS
      28      57.33805171      57.30232378       6.235E-04     56.74    <-- DIS
      29      57.31805800      57.28569038       5.650E-04     58.47    <-- DIS
      30      57.29994160      57.27059400       5.124E-04     60.21    <-- DIS
      31      57.28351283      57.25688283       4.651E-04     61.95    <-- DIS
      32      57.26860307      57.24442125       4.224E-04     63.69    <-- DIS
      33      57.25506201      57.23308797       3.839E-04     65.42    <-- DIS
      34      57.24275551      57.22277433       3.492E-04     67.16    <-- DIS
      35      57.23156360      57.21338286       3.178E-04     68.90    <-- DIS
      36      57.22137883      57.20482605       2.894E-04     70.64    <-- DIS
      37      57.21210487      57.19702523       2.636E-04     72.38    <-- DIS
      38      57.20365522      57.18990959       2.404E-04     74.12    <-- DIS
      39      57.19595215      57.18341538       2.192E-04     75.85    <-- DIS
      40      57.18892570      57.17748512       2.001E-04     77.59    <-- DIS
      41      57.18251290      57.17206695       1.827E-04     79.32    <-- DIS
      42      57.17665696      57.16711405       1.669E-04     81.06    <-- DIS
      43      57.17130667      57.16258412       1.526E-04     82.80    <-- DIS
      44      57.16641578      57.15843892       1.396E-04     84.53    <-- DIS
      45      57.16194254      57.15464385       1.277E-04     86.27    <-- DIS
      46      57.15784916      57.15116759       1.169E-04     88.00    <-- DIS
      47      57.15410148      57.14798175       1.071E-04     89.74    <-- DIS
      48      57.15066859      57.14506064       9.814E-05     91.48    <-- DIS
      49      57.14752245      57.14238094       8.998E-05     93.21    <-- DIS
      50      57.14463769      57.13992147       8.254E-05     94.95    <-- DIS
      51      57.14199128      57.13766305       7.575E-05     96.68    <-- DIS
      52      57.13956233      57.13558821       6.956E-05     98.42    <-- DIS
      53      57.13733188      57.13368113       6.390E-05    100.16    <-- DIS
      54      57.13528270      57.13192737       5.873E-05    101.89    <-- DIS
      55      57.13339915      57.13031383       5.401E-05    103.62    <-- DIS
      56      57.13166700      57.12882858       4.968E-05    105.36    <-- DIS
      57      57.13007330      57.12746077       4.573E-05    107.10    <-- DIS
      58      57.12860629      57.12620049       4.211E-05    108.83    <-- DIS
      59      57.12725522      57.12503873       3.880E-05    110.57    <-- DIS
      60      57.12601034      57.12396728       3.577E-05    112.30    <-- DIS
      61      57.12486276      57.12297864       3.298E-05    114.04    <-- DIS
      62      57.12380434      57.12206596       3.043E-05    115.77    <-- DIS
      63      57.12282770      57.12122302       2.809E-05    117.51    <-- DIS
      64      57.12192607      57.12044409       2.594E-05    119.24    <-- DIS
      65      57.12109331      57.11972398       2.397E-05    120.98    <-- DIS
      66      57.12032376      57.11905791       2.216E-05    122.71    <-- DIS
      67      57.11961231      57.11844155       2.050E-05    124.45    <-- DIS
      68      57.11895423      57.11787090       1.897E-05    126.18    <-- DIS
      69      57.11834523      57.11734233       1.756E-05    127.92    <-- DIS
      70      57.11778139      57.11685248       1.626E-05    129.66    <-- DIS
      71      57.11725909      57.11639831       1.507E-05    131.39    <-- DIS
      72      57.11677505      57.11597702       1.397E-05    133.12    <-- DIS
      73      57.11632625      57.11558603       1.296E-05    134.86    <-- DIS
      74      57.11590993      57.11522301       1.203E-05    136.60    <-- DIS
      75      57.11552354      57.11488577       1.117E-05    138.33    <-- DIS
      76      57.11516476      57.11457235       1.037E-05    140.07    <-- DIS
      77      57.11483147      57.11428092       9.639E-06    141.80    <-- DIS
      78      57.11452169      57.11400981       8.963E-06    143.54    <-- DIS
      79      57.11423364      57.11375748       8.337E-06    145.27    <-- DIS
      80      57.11396567      57.11352253       7.759E-06    147.01    <-- DIS
      81      57.11371626      57.11330365       7.224E-06    148.74    <-- DIS
      82      57.11348400      57.11309964       6.730E-06    150.48    <-- DIS
      83      57.11326763      57.11290942       6.272E-06    152.22    <-- DIS
      84      57.11306596      57.11273196       5.848E-06    154.03    <-- DIS
      85      57.11287790      57.11256633       5.455E-06    155.81    <-- DIS
      86      57.11270246      57.11241168       5.091E-06    157.55    <-- DIS
      87      57.11253870      57.11226720       4.754E-06    159.29    <-- DIS
      88      57.11238579      57.11213218       4.441E-06    161.02    <-- DIS
      89      57.11224294      57.11200593       4.150E-06    162.76    <-- DIS
      90      57.11210942      57.11188782       3.880E-06    164.50    <-- DIS
      91      57.11198458      57.11177730       3.629E-06    166.24    <-- DIS
      92      57.11186779      57.11167382       3.396E-06    167.98    <-- DIS
      93      57.11175849      57.11157689       3.180E-06    169.71    <-- DIS
      94      57.11165615      57.11148606       2.978E-06    171.45    <-- DIS
      95      57.11156029      57.11140090       2.791E-06    173.19    <-- DIS
      96      57.11147045      57.11132104       2.616E-06    174.93    <-- DIS
      97      57.11138623      57.11124611       2.454E-06    176.66    <-- DIS
      98      57.11130724      57.11117577       2.302E-06    178.40    <-- DIS
      99      57.11123312      57.11110972       2.161E-06    180.14    <-- DIS
     100      57.11116355      57.11104767       2.029E-06    181.88    <-- DIS

     <<< Warning: Maximum number of disentanglement iterations reached >>>
          <<< Disentanglement convergence criteria not satisfied >>>

        Final Omega_I    57.11104767 (Ang^2)

 +----------------------------------------------------------------------------+

 Time to disentangle bands    177.088 (sec)

 Writing checkpoint file wannier90.chk... done


 *------------------------------- WANNIERISE ---------------------------------*
 +--------------------------------------------------------------------+<-- CONV
 | Iter  Delta Spread     RMS Gradient      Spread (Ang^2)      Time  |<-- CONV
 +--------------------------------------------------------------------+<-- CONV

 ------------------------------------------------------------------------------
 Initial State
  WF centre and spread    1  (  2.439183,  1.451548, 11.327777 )     1.68037352
  WF centre and spread    2  (  2.450621,  1.458337, 11.337241 )     3.04112404
  WF centre and spread    3  (  2.429226,  1.426555, 11.328447 )     3.15461221
  WF centre and spread    4  (  2.437893,  1.472034, 11.320518 )     3.13652715
  WF centre and spread    5  (  3.656788,  2.176782, 16.981676 )     1.68038543
  WF centre and spread    6  (  3.645355,  2.170000, 16.972221 )     3.04114239
  WF centre and spread    7  (  3.666751,  2.201769, 16.981010 )     3.15461807
  WF centre and spread    8  (  3.658084,  2.156296, 16.988929 )     3.13652514
  WF centre and spread    9  ( -0.000000, -0.000000,  0.000000 )     1.13400425
  WF centre and spread   10  ( -0.000000, -0.000001,  0.000001 )     1.86391609
  WF centre and spread   11  ( -0.000002,  0.000001, -0.000001 )     1.85331143
  WF centre and spread   12  ( -0.000001, -0.000000,  0.000001 )     1.84182977
  WF centre and spread   13  (  1.296891,  0.771632,  6.020709 )     1.14166883
  WF centre and spread   14  (  1.309277,  0.779033,  6.025168 )     1.86753638
  WF centre and spread   15  (  1.285085,  0.739786,  6.027347 )     1.88069240
  WF centre and spread   16  (  1.296152,  0.798248,  6.018020 )     1.86741921
  WF centre and spread   17  (  4.799080,  2.856699, 22.288745 )     1.14166429
  WF centre and spread   18  (  4.786693,  2.849296, 22.284281 )     1.86754021
  WF centre and spread   19  (  4.810889,  2.888547, 22.282106 )     1.88069836
  WF centre and spread   20  (  4.799819,  2.830083, 22.291433 )     1.86742053
  WF centre and spread   21  (  2.439194,  1.451556, 11.327774 )     1.68014469
  WF centre and spread   22  (  2.450372,  1.458287, 11.336696 )     3.04494593
  WF centre and spread   23  (  2.429051,  1.426919, 11.328052 )     3.15646925
  WF centre and spread   24  (  2.437634,  1.471519, 11.320270 )     3.13815469
  WF centre and spread   25  (  3.656778,  2.176773, 16.981680 )     1.68016892
  WF centre and spread   26  (  3.645584,  2.170152, 16.972734 )     3.04494248
  WF centre and spread   27  (  3.666823,  2.201442, 16.981403 )     3.15646529
  WF centre and spread   28  (  3.658365,  2.156897, 16.989206 )     3.13817148
  WF centre and spread   29  ( -0.000000,  0.000001,  0.000000 )     1.13377498
  WF centre and spread   30  (  0.000001, -0.000007,  0.000006 )     1.86459328
  WF centre and spread   31  (  0.000010, -0.000000, -0.000001 )     1.85483010
  WF centre and spread   32  ( -0.000005, -0.000008, -0.000002 )     1.84337146
  WF centre and spread   33  (  1.296898,  0.771634,  6.020738 )     1.14188638
  WF centre and spread   34  (  1.309157,  0.778996,  6.024618 )     1.86819326
  WF centre and spread   35  (  1.284924,  0.739228,  6.027175 )     1.88231320
  WF centre and spread   36  (  1.296126,  0.798669,  6.017672 )     1.86907583
  WF centre and spread   37  (  4.799071,  2.856705, 22.288715 )     1.14187877
  WF centre and spread   38  (  4.786814,  2.849330, 22.284839 )     1.86819297
  WF centre and spread   39  (  4.811047,  2.889100, 22.282282 )     1.88229955
  WF centre and spread   40  (  4.799838,  2.829691, 22.291771 )     1.86909953
  Sum of centres and spreads ( 97.535464, 58.053528,452.951260 )    84.49198174

      0     0.845E+02     0.0000000000       84.4919817084     184.93  <-- CONV
        O_D=      0.0523524 O_OD=     27.3285816 O_TOT=     84.4919817 <-- SPRD
 ------------------------------------------------------------------------------
 Cycle:      1
  WF centre and spread    1  (  2.438976,  1.451119, 11.326109 )     1.56191251
  WF centre and spread    2  (  2.451030,  1.458720, 11.337292 )     2.97209268
  WF centre and spread    3  (  2.428601,  1.425912, 11.327070 )     3.06556257
  WF centre and spread    4  (  2.437438,  1.472126, 11.318889 )     3.04849380
  WF centre and spread    5  (  3.656994,  2.177211, 16.983344 )     1.56192210
  WF centre and spread    6  (  3.644946,  2.169617, 16.972170 )     2.97209040
  WF centre and spread    7  (  3.667376,  2.202412, 16.982388 )     3.06556501
  WF centre and spread    8  (  3.658539,  2.156203, 16.990558 )     3.04849461
  WF centre and spread    9  ( -0.000000, -0.000000, -0.000000 )     1.07222048
  WF centre and spread   10  ( -0.000000, -0.000001,  0.000001 )     1.83516576
  WF centre and spread   11  ( -0.000002,  0.000001, -0.000001 )     1.81590500
  WF centre and spread   12  ( -0.000001, -0.000001,  0.000001 )     1.80589427
  WF centre and spread   13  (  1.296277,  0.770902,  6.018362 )     1.09124700
  WF centre and spread   14  (  1.309678,  0.779414,  6.021263 )     1.85316710
  WF centre and spread   15  (  1.283575,  0.739005,  6.026132 )     1.83759130
  WF centre and spread   16  (  1.295690,  0.798091,  6.016531 )     1.82644173
  WF centre and spread   17  (  4.799694,  2.857429, 22.291092 )     1.09124619
  WF centre and spread   18  (  4.786292,  2.848914, 22.288187 )     1.85316604
  WF centre and spread   19  (  4.812399,  2.889328, 22.283322 )     1.83759276
  WF centre and spread   20  (  4.800281,  2.830239, 22.292922 )     1.82644459
  WF centre and spread   21  (  2.438988,  1.451136, 11.326112 )     1.56176373
  WF centre and spread   22  (  2.450774,  1.458670, 11.336737 )     2.97548170
  WF centre and spread   23  (  2.428424,  1.426267, 11.326670 )     3.06735382
  WF centre and spread   24  (  2.437179,  1.471620, 11.318625 )     3.04994167
  WF centre and spread   25  (  3.656986,  2.177192, 16.983342 )     1.56177940
  WF centre and spread   26  (  3.645181,  2.169771, 16.972693 )     2.97548449
  WF centre and spread   27  (  3.667447,  2.202093, 16.982786 )     3.06736312
  WF centre and spread   28  (  3.658820,  2.156800, 16.990851 )     3.04993984
  WF centre and spread   29  ( -0.000000,  0.000001,  0.000000 )     1.07235477
  WF centre and spread   30  (  0.000002, -0.000008,  0.000007 )     1.83576073
  WF centre and spread   31  (  0.000011, -0.000000, -0.000001 )     1.81700113
  WF centre and spread   32  ( -0.000005, -0.000009, -0.000002 )     1.80688582
  WF centre and spread   33  (  1.296286,  0.770897,  6.018394 )     1.09114954
  WF centre and spread   34  (  1.309560,  0.779381,  6.020714 )     1.85401569
  WF centre and spread   35  (  1.283418,  0.738444,  6.025972 )     1.83930436
  WF centre and spread   36  (  1.295667,  0.798533,  6.016203 )     1.82816865
  WF centre and spread   37  (  4.799682,  2.857440, 22.291058 )     1.09114579
  WF centre and spread   38  (  4.786411,  2.848945, 22.288742 )     1.85401565
  WF centre and spread   39  (  4.812552,  2.889883, 22.283484 )     1.83930350
  WF centre and spread   40  (  4.800297,  2.829828, 22.293241 )     1.82817738
  Sum of centres and spreads ( 97.535464, 58.053528,452.951260 )    82.10860670

      1    -0.238E+01     1.3172468779       82.1086066679     186.98  <-- CONV
        O_D=      0.0572660 O_OD=     24.9402930 O_TOT=     82.1086067 <-- SPRD
 Delta: O_D=  0.4913559E-02 O_OD= -0.2388289E+01 O_TOT= -0.2383375E+01 <-- DLTA
 ------------------------------------------------------------------------------
 Cycle:     50
  WF centre and spread    1  (  2.472127,  1.380878, 11.269513 )     1.39982610
  WF centre and spread    2  (  2.451206,  1.458988, 11.390644 )     2.86791580
  WF centre and spread    3  (  2.393071,  1.425152, 11.325730 )     2.90625377
  WF centre and spread    4  (  2.436876,  1.544692, 11.316622 )     2.89737596
  WF centre and spread    5  (  3.623819,  2.247456, 17.039907 )     1.39983383
  WF centre and spread    6  (  3.644770,  2.169349, 16.918851 )     2.86793372
  WF centre and spread    7  (  3.702932,  2.203172, 16.983727 )     2.90625349
  WF centre and spread    8  (  3.659102,  2.083634, 16.992825 )     2.89737446
  WF centre and spread    9  (  0.000003,  0.000001, -0.000003 )     1.02414271
  WF centre and spread   10  ( -0.000001, -0.000001,  0.000004 )     1.91209281
  WF centre and spread   11  ( -0.000005,  0.000001, -0.000001 )     1.84553710
  WF centre and spread   12  ( -0.000001, -0.000001,  0.000002 )     1.84405225
  WF centre and spread   13  (  1.325530,  0.717259,  6.024909 )     1.02065142
  WF centre and spread   14  (  1.310108,  0.779408,  5.995707 )     1.89019484
  WF centre and spread   15  (  1.249055,  0.736965,  6.024133 )     1.83849358
  WF centre and spread   16  (  1.294840,  0.851635,  6.013236 )     1.83199307
  WF centre and spread   17  (  4.770435,  2.911072, 22.284553 )     1.02065075
  WF centre and spread   18  (  4.785862,  2.848921, 22.313734 )     1.89019878
  WF centre and spread   19  (  4.846925,  2.891368, 22.285320 )     1.83849954
  WF centre and spread   20  (  4.801131,  2.776695, 22.296217 )     1.83199843
  WF centre and spread   21  (  2.472775,  1.382657, 11.271486 )     1.39957105
  WF centre and spread   22  (  2.450956,  1.458946, 11.388059 )     2.87163917
  WF centre and spread   23  (  2.392209,  1.425507, 11.325323 )     2.90779441
  WF centre and spread   24  (  2.436623,  1.542348, 11.316353 )     2.89928947
  WF centre and spread   25  (  3.623552,  2.245367, 17.038060 )     1.39958174
  WF centre and spread   26  (  3.644997,  2.169499, 16.921281 )     2.87160546
  WF centre and spread   27  (  3.703296,  2.202852, 16.984137 )     2.90786349
  WF centre and spread   28  (  3.659375,  2.086388, 16.993120 )     2.89938974
  WF centre and spread   29  ( -0.000026,  0.000023, -0.000017 )     1.02400949
  WF centre and spread   30  (  0.000001, -0.000009,  0.000025 )     1.91269646
  WF centre and spread   31  (  0.000038, -0.000001, -0.000002 )     1.84700917
  WF centre and spread   32  ( -0.000005, -0.000032, -0.000001 )     1.84551029
  WF centre and spread   33  (  1.325882,  0.716345,  6.026200 )     1.02057387
  WF centre and spread   34  (  1.310003,  0.779368,  5.993862 )     1.89138461
  WF centre and spread   35  (  1.248536,  0.736375,  6.023976 )     1.84028981
  WF centre and spread   36  (  1.294819,  0.853052,  6.012892 )     1.83357707
  WF centre and spread   37  (  4.770088,  2.911938, 22.283245 )     1.02057279
  WF centre and spread   38  (  4.785967,  2.848958, 22.315601 )     1.89138104
  WF centre and spread   39  (  4.847433,  2.891952, 22.285479 )     1.84031320
  WF centre and spread   40  (  4.801145,  2.775364, 22.296554 )     1.83357869
  Sum of centres and spreads ( 97.535453, 58.053541,452.951261 )    79.88890341

     50    -0.105E-01     0.1460398142       79.8889033814     280.63  <-- CONV
        O_D=      0.0385580 O_OD=     22.7392977 O_TOT=     79.8889034 <-- SPRD
 Delta: O_D=  0.1926883E-04 O_OD= -0.1047748E-01 O_TOT= -0.1045822E-01 <-- DLTA
 ------------------------------------------------------------------------------
 Cycle:    100
  WF centre and spread    1  (  2.689199,  1.002259, 10.951422 )     1.52718460
  WF centre and spread    2  (  2.470337,  1.433651, 11.771552 )     2.48681322
  WF centre and spread    3  (  2.130475,  1.409204, 11.318729 )     2.75161936
  WF centre and spread    4  (  2.456420,  1.973796, 11.263721 )     2.40928802
  WF centre and spread    5  (  3.406598,  2.626110, 17.357867 )     1.52717042
  WF centre and spread    6  (  3.625648,  2.194657, 16.538073 )     2.48708812
  WF centre and spread    7  (  3.965690,  2.219144, 16.990739 )     2.75143612
  WF centre and spread    8  (  3.639538,  1.654502, 17.045715 )     2.40920680
  WF centre and spread    9  (  0.000028,  0.000007, -0.000023 )     1.02668569
  WF centre and spread   10  ( -0.000001, -0.000001,  0.000025 )     1.91579423
  WF centre and spread   11  ( -0.000031,  0.000001, -0.000001 )     1.84704335
  WF centre and spread   12  ( -0.000001, -0.000008,  0.000002 )     1.84631657
  WF centre and spread   13  (  1.502040,  0.446863,  6.088137 )     0.98914297
  WF centre and spread   14  (  1.312175,  0.775465,  5.932083 )     1.88839452
  WF centre and spread   15  (  1.062032,  0.728302,  6.025898 )     1.76901338
  WF centre and spread   16  (  1.299626,  1.140052,  6.012821 )     1.63849707
  WF centre and spread   17  (  4.593892,  3.181471, 22.221374 )     0.98914206
  WF centre and spread   18  (  4.783796,  2.852861, 22.377305 )     1.88840956
  WF centre and spread   19  (  5.033982,  2.900034, 22.283556 )     1.76899426
  WF centre and spread   20  (  4.796344,  2.488275, 22.296635 )     1.63849773
  WF centre and spread   21  (  2.696382,  1.005550, 10.957520 )     1.52145136
  WF centre and spread   22  (  2.469595,  1.435162, 11.762881 )     2.50597492
  WF centre and spread   23  (  2.123236,  1.408968, 11.317977 )     2.74639319
  WF centre and spread   24  (  2.456343,  1.969149, 11.265792 )     2.42085192
  WF centre and spread   25  (  3.401671,  2.622259, 17.353192 )     1.52057083
  WF centre and spread   26  (  3.626361,  2.193357, 16.545579 )     2.50407502
  WF centre and spread   27  (  3.970235,  2.219095, 16.991311 )     2.74935171
  WF centre and spread   28  (  3.639942,  1.659989, 17.043571 )     2.42260631
  WF centre and spread   29  ( -0.000210,  0.000179, -0.000146 )     1.02660703
  WF centre and spread   30  (  0.000002, -0.000009,  0.000155 )     1.91641185
  WF centre and spread   31  (  0.000226, -0.000001, -0.000004 )     1.84842807
  WF centre and spread   32  ( -0.000005, -0.000192, -0.000001 )     1.84794681
  WF centre and spread   33  (  1.503154,  0.444507,  6.095898 )     0.98929440
  WF centre and spread   34  (  1.312345,  0.774923,  5.923119 )     1.88740112
  WF centre and spread   35  (  1.060320,  0.727448,  6.025939 )     1.76958904
  WF centre and spread   36  (  1.299739,  1.143668,  6.012906 )     1.63587397
  WF centre and spread   37  (  4.592796,  3.183630, 22.213484 )     0.98928937
  WF centre and spread   38  (  4.783623,  2.853402, 22.386416 )     1.88737621
  WF centre and spread   39  (  5.035665,  2.900873, 22.283516 )     1.76959289
  WF centre and spread   40  (  4.796234,  2.484902, 22.296533 )     1.63615125
  Sum of centres and spreads ( 97.535442, 58.053503,452.951267 )    75.15097535

    100    -0.144E+00     0.5233301225       75.1509753184     376.50  <-- CONV
        O_D=      0.0392583 O_OD=     18.0006693 O_TOT=     75.1509753 <-- SPRD
 Delta: O_D=  0.1463682E-03 O_OD= -0.1437244E+00 O_TOT= -0.1435781E+00 <-- DLTA
 ------------------------------------------------------------------------------

 Writing checkpoint file wannier90.chk... done

 Final State
  WF centre and spread    1  (  2.689199,  1.002259, 10.951422 )     1.52718460
  WF centre and spread    2  (  2.470337,  1.433651, 11.771552 )     2.48681322
  WF centre and spread    3  (  2.130475,  1.409204, 11.318729 )     2.75161936
  WF centre and spread    4  (  2.456420,  1.973796, 11.263721 )     2.40928802
  WF centre and spread    5  (  3.406598,  2.626110, 17.357867 )     1.52717042
  WF centre and spread    6  (  3.625648,  2.194657, 16.538073 )     2.48708812
  WF centre and spread    7  (  3.965690,  2.219144, 16.990739 )     2.75143612
  WF centre and spread    8  (  3.639538,  1.654502, 17.045715 )     2.40920680
  WF centre and spread    9  (  0.000028,  0.000007, -0.000023 )     1.02668569
  WF centre and spread   10  ( -0.000001, -0.000001,  0.000025 )     1.91579423
  WF centre and spread   11  ( -0.000031,  0.000001, -0.000001 )     1.84704335
  WF centre and spread   12  ( -0.000001, -0.000008,  0.000002 )     1.84631657
  WF centre and spread   13  (  1.502040,  0.446863,  6.088137 )     0.98914297
  WF centre and spread   14  (  1.312175,  0.775465,  5.932083 )     1.88839452
  WF centre and spread   15  (  1.062032,  0.728302,  6.025898 )     1.76901338
  WF centre and spread   16  (  1.299626,  1.140052,  6.012821 )     1.63849707
  WF centre and spread   17  (  4.593892,  3.181471, 22.221374 )     0.98914206
  WF centre and spread   18  (  4.783796,  2.852861, 22.377305 )     1.88840956
  WF centre and spread   19  (  5.033982,  2.900034, 22.283556 )     1.76899426
  WF centre and spread   20  (  4.796344,  2.488275, 22.296635 )     1.63849773
  WF centre and spread   21  (  2.696382,  1.005550, 10.957520 )     1.52145136
  WF centre and spread   22  (  2.469595,  1.435162, 11.762881 )     2.50597492
  WF centre and spread   23  (  2.123236,  1.408968, 11.317977 )     2.74639319
  WF centre and spread   24  (  2.456343,  1.969149, 11.265792 )     2.42085192
  WF centre and spread   25  (  3.401671,  2.622259, 17.353192 )     1.52057083
  WF centre and spread   26  (  3.626361,  2.193357, 16.545579 )     2.50407502
  WF centre and spread   27  (  3.970235,  2.219095, 16.991311 )     2.74935171
  WF centre and spread   28  (  3.639942,  1.659989, 17.043571 )     2.42260631
  WF centre and spread   29  ( -0.000210,  0.000179, -0.000146 )     1.02660703
  WF centre and spread   30  (  0.000002, -0.000009,  0.000155 )     1.91641185
  WF centre and spread   31  (  0.000226, -0.000001, -0.000004 )     1.84842807
  WF centre and spread   32  ( -0.000005, -0.000192, -0.000001 )     1.84794681
  WF centre and spread   33  (  1.503154,  0.444507,  6.095898 )     0.98929440
  WF centre and spread   34  (  1.312345,  0.774923,  5.923119 )     1.88740112
  WF centre and spread   35  (  1.060320,  0.727448,  6.025939 )     1.76958904
  WF centre and spread   36  (  1.299739,  1.143668,  6.012906 )     1.63587397
  WF centre and spread   37  (  4.592796,  3.183630, 22.213484 )     0.98928937
  WF centre and spread   38  (  4.783623,  2.853402, 22.386416 )     1.88737621
  WF centre and spread   39  (  5.035665,  2.900873, 22.283516 )     1.76959289
  WF centre and spread   40  (  4.796234,  2.484902, 22.296533 )     1.63615125
  Sum of centres and spreads ( 97.535442, 58.053503,452.951267 )    75.15097535

         Spreads (Ang^2)       Omega I      =    57.111047674
        ================       Omega D      =     0.039258338
                               Omega OD     =    18.000669306
    Final Spread (Ang^2)       Omega Total  =    75.150975318
 ------------------------------------------------------------------------------
 Time for wannierise          192.044 (sec)

 Writing checkpoint file wannier90.chk... done

 *---------------------------------------------------------------------------*
 |                               PLOTTING                                    |
 *---------------------------------------------------------------------------*

 Time for plotting              0.928 (sec)
 Total Execution Time         378.044 (sec)

 *===========================================================================*
 |                             TIMING INFORMATION                            |
 *===========================================================================*
 |    Tag                                                Ncalls      Time (s)|
 |---------------------------------------------------------------------------|
 |kmesh: get                                        :         1         0.332|
 |overlap: read                                     :         1         7.172|
 |dis: main                                         :         1       177.088|
 |wann: main                                        :         1       192.044|
 |plot: main                                        :         1         0.928|
 *---------------------------------------------------------------------------*

 All done: wannier90 exiting

             +---------------------------------------------------+
             |                                                   |
             |                   WANNIER90                       |
             |                                                   |
             +---------------------------------------------------+
             |                                                   |
             |        Welcome to the Maximally-Localized         |
             |        Generalized Wannier Functions code         |
             |            http://www.wannier.org                 |
             |                                                   |
             |  Wannier90 Authors:                               |
             |    Arash A. Mostofi   (Imperial College London)   |
             |    Jonathan R. Yates  (University of Oxford)      |
             |    Young-Su Lee       (KIST, S. Korea)            |
             |                                                   |
             |  Wannier90 Contributors:                          |
             |    Matthew Shelley    (Imperial College London)   |
             |    Nicolas Poilvert   (MIT)                       |
             |                                                   |
             |  Wannier77 Authors:                               |
             |    Nicola Marzari     (University of Oxford)      |
             |    Ivo Souza          (UC Berkeley)               |
             |    David Vanderbilt   (Rutgers University)        |
             |                                                   |
             |  Please cite                                      |
             |                                                   |
             |  [ref] "Wannier90: A Tool for Obtaining Maximally |
             |         Localised Wannier Functions"              |
             |        A. A. Mostofi, J. R. Yates, Y.-S. Lee,     |
             |        I. Souza, D. Vanderbilt and N. Marzari     |
             |        Comput. Phys. Commun. 178, 685 (2008)      |
             |                                                   |
             |  in any publications arising from the use of      |
             |  this code. For the method please cite            |
             |                                                   |
             |  [ref] "Maximally Localized Generalised Wannier   |
             |         Functions for Composite Energy Bands"     |
             |         N. Marzari and D. Vanderbilt              |
             |         Phys. Rev. B 56 12847 (1997)              |
             |                                                   |
             |  [ref] "Maximally Localized Wannier Functions     |
             |         for Entangled Energy Bands"               |
             |         I. Souza, N. Marzari and D. Vanderbilt    |
             |         Phys. Rev. B 65 035109 (2001)             |
             |                                                   |
             |                                                   |
             | Copyright (c) 1996-2010                           |
             |        A. A. Mostofi, J. R. Yates, Y.-S. Lee,     |
             |        I. Souza, D. Vanderbilt and N. Marzari     |
             |                                                   |
             |        Release: 1.2        24th Jan 2010          |
             |                                                   |
             | This program is free software; you can            |
             | redistribute it and/or modify it under the terms  |
             | of the GNU General Public License as published by |
             | the Free Software Foundation; either version 2 of |
             | the License, or (at your option) any later version|
             |                                                   |
             | This program is distributed in the hope that it   |
             | will be useful, but WITHOUT ANY WARRANTY; without |
             | even the implied warranty of MERCHANTABILITY or   |
             | FITNESS FOR A PARTICULAR PURPOSE. See the GNU     |
             | General Public License for more details.          |
             |                                                   |
             | You should have received a copy of the GNU General|
             | Public License along with this program; if not,   |
             | write to the Free Software Foundation, Inc.,      |
             | 675 Mass Ave, Cambridge, MA 02139, USA.           |
             |                                                   |
             +---------------------------------------------------+
             |    Execution started on 24Feb2020 at 17:23:04     |
             +---------------------------------------------------+

 Wannier90 is running in LIBRARY MODE

 Setting up k-point neighbours...


                                    ------
                                    SYSTEM
                                    ------

                              Lattice Vectors (Ang)
                    a_1     4.113792   0.008072   9.142179
                    a_2     1.968617   3.612187   9.142179
                    a_3     0.013562   0.008072  10.025095

                   Unit Cell Volume:     148.20630  (Ang^3)

                        Reciprocal-Space Vectors (Ang^-1)
                    b_1     1.532096  -0.831430  -0.001403
                    b_2    -0.000302   1.743157  -0.001403
                    b_3    -1.396888  -0.831430   0.629305
  
 *----------------------------------------------------------------------------*
 |   Site       Fractional Coordinate          Cartesian Coordinate (Ang)     |
 +----------------------------------------------------------------------------+
 | Bi   1   0.40000   0.40000   0.40000   |    2.43836   1.45132  11.32367    |
 | Bi   2   0.60000   0.60000   0.60000   |    3.65761   2.17701  16.98579    |
 | Se   1   0.00000   0.00000   0.00000   |    0.00000   0.00000   0.00000    |
 | Se   2   0.21277   0.21277   0.21277   |    1.29705   0.77201   6.02346    |
 | Se   3   0.78723   0.78723   0.78723   |    4.79892   2.85632  22.28599    |
 *----------------------------------------------------------------------------*
  
                                ------------
                                K-POINT GRID
                                ------------
  
             Grid size =  6 x  6 x  6      Total points =  216
  
  
 *---------------------------------- MAIN ------------------------------------*
 |  Number of Wannier Functions               :                40             |
 |  Number of input Bloch states              :                48             |
 |  Output verbosity (1=low, 5=high)          :                 1             |
 |  Timing Level (1=low, 5=high)              :                 1             |
 |  Optimisation (0=memory, 3=speed)          :                 3             |
 |  Length Unit                               :               Ang             |
 |  Post-processing setup (write *.nnkp)      :                 F             |
 |  Using Gamma-only branch of algorithms     :                 F             |
 *----------------------------------------------------------------------------*
 *------------------------------- WANNIERISE ---------------------------------*
 |  Total number of iterations                :               100             |
 |  Number of CG steps before reset           :                 5             |
 |  Trial step length for line search         :             2.000             |
 |  Convergence tolerence                     :         0.100E-09             |
 |  Convergence window                        :                -1             |
 |  Iterations between writing output         :                50             |
 |  Iterations between backing up to disk     :               100             |
 |  Write r^2_nm to file                      :                 F             |
 |  Write xyz WF centres to file              :                 F             |
 |  Use guiding centre to control phases      :                 T             |
 |  Iterations before starting guiding centres:                 0             |
 |  Iterations between using guiding centres  :                 1             |
 *----------------------------------------------------------------------------*
 Time to read parameters        0.004 (sec)

 *---------------------------------- K-MESH ----------------------------------*
 +----------------------------------------------------------------------------+
 |                    Distance to Nearest-Neighbour Shells                    |
 |                    ------------------------------------                    |
 |          Shell             Distance (Ang^-1)          Multiplicity         |
 |          -----             -----------------          ------------         |
 |             1                   0.107645                      2            |
 |             2                   0.215290                      2            |
 |             3                   0.290526                      2            |
 |             4                   0.290526                      2            |
 |             5                   0.290526                      2            |
 |             6                   0.297099                      2            |
 |             7                   0.297099                      2            |
 |             8                   0.297099                      2            |
 |             9                   0.322053                      2            |
 |            10                   0.322053                      2            |
 |            11                   0.322053                      2            |
 |            12                   0.322935                      2            |
 +----------------------------------------------------------------------------+
 | The b-vectors are chosen automatically                                     |
 | The following shells are used:   1,  3,  4,  5,  6,  7                     |
 +----------------------------------------------------------------------------+
 |                        Shell   # Nearest-Neighbours                        |
 |                        -----   --------------------                        |
 |                          1               2                                 |
 |                          3               2                                 |
 |                          4               2                                 |
 |                          5               2                                 |
 |                          6               2                                 |
 |                          7               2                                 |
 +----------------------------------------------------------------------------+
 | Completeness relation is fully satisfied [Eq. (B1), PRB 56, 12847 (1997)]  |
 +----------------------------------------------------------------------------+
 |                  b_k Vectors (Ang^-1) and Weights (Ang^2)                  |
 |                  ----------------------------------------                  |
 |            No.         b_k(x)      b_k(y)      b_k(z)        w_b           |
 |            ---        --------------------------------     --------        |
 |             1         0.022484    0.013383    0.104416    41.813410        |
 |             2        -0.022484   -0.013383   -0.104416    41.813410        |
 |             3        -0.232815   -0.138572    0.104884     4.010363        |
 |             4         0.232815    0.138572   -0.104884     4.010363        |
 |             5         0.255349   -0.138572   -0.000234     4.010363        |
 |             6        -0.255349    0.138572    0.000234     4.010363        |
 |             7        -0.000050    0.290526   -0.000234     4.010363        |
 |             8         0.000050   -0.290526    0.000234     4.010363        |
 |             9         0.255299    0.151954   -0.000468     0.000003        |
 |            10        -0.255299   -0.151954    0.000468     0.000003        |
 |            11        -0.232865    0.151954    0.104650    -0.000000        |
 |            12         0.232865   -0.151954   -0.104650    -0.000000        |
 +----------------------------------------------------------------------------+
 |                           b_k Directions (Ang^-1)                          |
 |                           -----------------------                          |
 |            No.           x           y           z                         |
 |            ---        --------------------------------                     |
 |             1         0.022484    0.013383    0.104416                     |
 |             2        -0.232815   -0.138572    0.104884                     |
 |             3         0.255349   -0.138572   -0.000234                     |
 |             4        -0.000050    0.290526   -0.000234                     |
 |             5         0.255299    0.151954   -0.000468                     |
 |             6        -0.232865    0.151954    0.104650                     |
 +----------------------------------------------------------------------------+
  
 Time to write kmesh            0.236 (sec)

 Finished setting up k-point neighbours.

 Returning to pw2wannier90 at 17:23:05 
