   2   2   0   0
  0.2044415E+02  0.3866974E-09  0.3866975E-09  0.3866975E-09  0.5000000E-15
  1.000000000000000E-004
  CAR 
 unknown system                          
     17.44431605     -8.14715969  301      5.93763975      1.00000000
     -8.147  0.0000E+00  0.0000E+00
     -8.062  0.0000E+00  0.0000E+00
     -7.977  0.0000E+00  0.0000E+00
     -7.891  0.0000E+00  0.0000E+00
     -7.806  0.0000E+00  0.0000E+00
     -7.721  0.0000E+00  0.0000E+00
     -7.635  0.0000E+00  0.0000E+00
     -7.550  0.0000E+00  0.0000E+00
     -7.465  0.0000E+00  0.0000E+00
     -7.379  0.0000E+00  0.0000E+00
     -7.294  0.2467E-17  0.2104E-18
     -7.209  0.2702E-15  0.2326E-16
     -7.124  0.2536E-13  0.2187E-14
     -7.038  0.1674E-11  0.1450E-12
     -6.953  0.7811E-10  0.6808E-11
     -6.868  0.2583E-08  0.2272E-09
     -6.782  0.6070E-07  0.5405E-08
     -6.697  0.1017E-05  0.9218E-07
     -6.612  0.1222E-04  0.1134E-05
     -6.526  0.1057E-03  0.1015E-04
     -6.441  0.6653E-03  0.6691E-04
     -6.356  0.3076E-02  0.3293E-03
     -6.270  0.1061E-01  0.1234E-02
     -6.185  0.2787E-01  0.3612E-02
     -6.100  0.5739E-01  0.8508E-02
     -6.015  0.9615E-01  0.1671E-01
     -5.929  0.1371E+00  0.2841E-01
     -5.844  0.1745E+00  0.4329E-01
     -5.759  0.2067E+00  0.6092E-01
     -5.673  0.2345E+00  0.8093E-01
     -5.588  0.2596E+00  0.1031E+00
     -5.503  0.2829E+00  0.1272E+00
     -5.417  0.3043E+00  0.1532E+00
     -5.332  0.3254E+00  0.1809E+00
     -5.247  0.3466E+00  0.2105E+00
     -5.161  0.3656E+00  0.2417E+00
     -5.076  0.3839E+00  0.2744E+00
     -4.991  0.4052E+00  0.3090E+00
     -4.906  0.4264E+00  0.3454E+00
     -4.820  0.4428E+00  0.3831E+00
     -4.735  0.4607E+00  0.4224E+00
     -4.650  0.4858E+00  0.4639E+00
     -4.564  0.5099E+00  0.5074E+00
     -4.479  0.5269E+00  0.5523E+00
     -4.394  0.5466E+00  0.5989E+00
     -4.308  0.5784E+00  0.6483E+00
     -4.223  0.6150E+00  0.7007E+00
     -4.138  0.6463E+00  0.7559E+00
     -4.053  0.6807E+00  0.8140E+00
     -3.967  0.7349E+00  0.8766E+00
     -3.882  0.7995E+00  0.9448E+00
     -3.797  0.8399E+00  0.1016E+01
     -3.711  0.8435E+00  0.1088E+01
     -3.626  0.8336E+00  0.1160E+01
     -3.541  0.8247E+00  0.1230E+01
     -3.455  0.8025E+00  0.1298E+01
     -3.370  0.7627E+00  0.1363E+01
     -3.285  0.7253E+00  0.1425E+01
     -3.199  0.7014E+00  0.1485E+01
     -3.114  0.6784E+00  0.1543E+01
     -3.029  0.6434E+00  0.1598E+01
     -2.944  0.6029E+00  0.1649E+01
     -2.858  0.5725E+00  0.1698E+01
     -2.773  0.5490E+00  0.1745E+01
     -2.688  0.5130E+00  0.1789E+01
     -2.602  0.4655E+00  0.1828E+01
     -2.517  0.4278E+00  0.1865E+01
     -2.432  0.3983E+00  0.1899E+01
     -2.346  0.3516E+00  0.1929E+01
     -2.261  0.2857E+00  0.1953E+01
     -2.176  0.2261E+00  0.1973E+01
     -2.091  0.1855E+00  0.1988E+01
     -2.005  0.1568E+00  0.2002E+01
     -1.920  0.1414E+00  0.2014E+01
     -1.835  0.1555E+00  0.2027E+01
     -1.749  0.2062E+00  0.2045E+01
     -1.664  0.2740E+00  0.2068E+01
     -1.579  0.3299E+00  0.2096E+01
     -1.493  0.3736E+00  0.2128E+01
     -1.408  0.4412E+00  0.2166E+01
     -1.323  0.5644E+00  0.2214E+01
     -1.237  0.7402E+00  0.2277E+01
     -1.152  0.9383E+00  0.2357E+01
     -1.067  0.1111E+01  0.2452E+01
     -0.982  0.1199E+01  0.2554E+01
     -0.896  0.1165E+01  0.2653E+01
     -0.811  0.1037E+01  0.2742E+01
     -0.726  0.8882E+00  0.2818E+01
     -0.640  0.7786E+00  0.2884E+01
     -0.555  0.7149E+00  0.2945E+01
     -0.470  0.6678E+00  0.3002E+01
     -0.384  0.6138E+00  0.3054E+01
     -0.299  0.5615E+00  0.3102E+01
     -0.214  0.5288E+00  0.3147E+01
     -0.128  0.5106E+00  0.3191E+01
     -0.043  0.4875E+00  0.3233E+01
      0.042  0.4542E+00  0.3271E+01
      0.127  0.4221E+00  0.3307E+01
      0.213  0.3999E+00  0.3341E+01
      0.298  0.3892E+00  0.3375E+01
      0.383  0.3823E+00  0.3407E+01
      0.469  0.3628E+00  0.3438E+01
      0.554  0.3295E+00  0.3466E+01
      0.639  0.3050E+00  0.3492E+01
      0.725  0.3004E+00  0.3518E+01
      0.810  0.3019E+00  0.3544E+01
      0.895  0.2941E+00  0.3569E+01
      0.980  0.2735E+00  0.3592E+01
      1.066  0.2514E+00  0.3614E+01
      1.151  0.2495E+00  0.3635E+01
      1.236  0.2879E+00  0.3659E+01
      1.322  0.3813E+00  0.3692E+01
      1.407  0.5344E+00  0.3738E+01
      1.492  0.7234E+00  0.3799E+01
      1.578  0.9023E+00  0.3876E+01
      1.663  0.1035E+01  0.3964E+01
      1.748  0.1107E+01  0.4059E+01
      1.834  0.1124E+01  0.4155E+01
      1.919  0.1107E+01  0.4249E+01
      2.004  0.1092E+01  0.4342E+01
      2.089  0.1089E+01  0.4435E+01
      2.175  0.1077E+01  0.4527E+01
      2.260  0.1054E+01  0.4617E+01
      2.345  0.1059E+01  0.4707E+01
      2.431  0.1103E+01  0.4801E+01
      2.516  0.1160E+01  0.4900E+01
      2.601  0.1220E+01  0.5004E+01
      2.687  0.1295E+01  0.5115E+01
      2.772  0.1372E+01  0.5232E+01
      2.857  0.1414E+01  0.5353E+01
      2.942  0.1431E+01  0.5475E+01
      3.028  0.1472E+01  0.5600E+01
      3.113  0.1531E+01  0.5731E+01
      3.198  0.1541E+01  0.5862E+01
      3.284  0.1486E+01  0.5989E+01
      3.369  0.1428E+01  0.6111E+01
      3.454  0.1408E+01  0.6231E+01
      3.540  0.1396E+01  0.6350E+01
      3.625  0.1365E+01  0.6466E+01
      3.710  0.1337E+01  0.6580E+01
      3.796  0.1328E+01  0.6694E+01
      3.881  0.1315E+01  0.6806E+01
      3.966  0.1289E+01  0.6916E+01
      4.051  0.1261E+01  0.7023E+01
      4.137  0.1237E+01  0.7129E+01
      4.222  0.1207E+01  0.7232E+01
      4.307  0.1163E+01  0.7331E+01
      4.393  0.1098E+01  0.7425E+01
      4.478  0.1007E+01  0.7511E+01
      4.563  0.8986E+00  0.7587E+01
      4.649  0.7877E+00  0.7655E+01
      4.734  0.6892E+00  0.7713E+01
      4.819  0.6030E+00  0.7765E+01
      4.904  0.5224E+00  0.7809E+01
      4.990  0.4483E+00  0.7848E+01
      5.075  0.3871E+00  0.7881E+01
      5.160  0.3409E+00  0.7910E+01
      5.246  0.3012E+00  0.7935E+01
      5.331  0.2550E+00  0.7957E+01
      5.416  0.1983E+00  0.7974E+01
      5.502  0.1392E+00  0.7986E+01
      5.587  0.8708E-01  0.7993E+01
      5.672  0.4710E-01  0.7997E+01
      5.758  0.2101E-01  0.7999E+01
      5.843  0.7409E-02  0.8000E+01
      5.928  0.2219E-02  0.8000E+01
      6.013  0.1777E-02  0.8000E+01
      6.099  0.5743E-02  0.8001E+01
      6.184  0.1790E-01  0.8002E+01
      6.269  0.4427E-01  0.8006E+01
      6.355  0.8862E-01  0.8013E+01
      6.440  0.1485E+00  0.8026E+01
      6.525  0.2171E+00  0.8045E+01
      6.611  0.2889E+00  0.8069E+01
      6.696  0.3609E+00  0.8100E+01
      6.781  0.4248E+00  0.8136E+01
      6.867  0.4703E+00  0.8176E+01
      6.952  0.5012E+00  0.8219E+01
      7.037  0.5361E+00  0.8265E+01
      7.122  0.5915E+00  0.8315E+01
      7.208  0.6727E+00  0.8373E+01
      7.293  0.7769E+00  0.8439E+01
      7.378  0.8888E+00  0.8515E+01
      7.464  0.9821E+00  0.8599E+01
      7.549  0.1053E+01  0.8688E+01
      7.634  0.1138E+01  0.8786E+01
      7.720  0.1254E+01  0.8892E+01
      7.805  0.1363E+01  0.9009E+01
      7.890  0.1439E+01  0.9132E+01
      7.975  0.1498E+01  0.9259E+01
      8.061  0.1544E+01  0.9391E+01
      8.146  0.1542E+01  0.9523E+01
      8.231  0.1477E+01  0.9649E+01
      8.317  0.1382E+01  0.9766E+01
      8.402  0.1296E+01  0.9877E+01
      8.487  0.1218E+01  0.9981E+01
      8.573  0.1143E+01  0.1008E+02
      8.658  0.1109E+01  0.1017E+02
      8.743  0.1179E+01  0.1027E+02
      8.829  0.1377E+01  0.1039E+02
      8.914  0.1647E+01  0.1053E+02
      8.999  0.1876E+01  0.1069E+02
      9.084  0.1970E+01  0.1086E+02
      9.170  0.1942E+01  0.1103E+02
      9.255  0.1877E+01  0.1119E+02
      9.340  0.1816E+01  0.1134E+02
      9.426  0.1730E+01  0.1149E+02
      9.511  0.1595E+01  0.1162E+02
      9.596  0.1432E+01  0.1175E+02
      9.682  0.1282E+01  0.1186E+02
      9.767  0.1182E+01  0.1196E+02
      9.852  0.1163E+01  0.1206E+02
      9.937  0.1236E+01  0.1216E+02
     10.023  0.1353E+01  0.1228E+02
     10.108  0.1432E+01  0.1240E+02
     10.193  0.1426E+01  0.1252E+02
     10.279  0.1353E+01  0.1264E+02
     10.364  0.1256E+01  0.1274E+02
     10.449  0.1176E+01  0.1284E+02
     10.535  0.1151E+01  0.1294E+02
     10.620  0.1195E+01  0.1304E+02
     10.705  0.1277E+01  0.1315E+02
     10.791  0.1343E+01  0.1327E+02
     10.876  0.1360E+01  0.1338E+02
     10.961  0.1313E+01  0.1349E+02
     11.046  0.1199E+01  0.1360E+02
     11.132  0.1056E+01  0.1369E+02
     11.217  0.9488E+00  0.1377E+02
     11.302  0.9250E+00  0.1385E+02
     11.388  0.9777E+00  0.1393E+02
     11.473  0.1065E+01  0.1402E+02
     11.558  0.1153E+01  0.1412E+02
     11.644  0.1230E+01  0.1422E+02
     11.729  0.1277E+01  0.1433E+02
     11.814  0.1246E+01  0.1444E+02
     11.899  0.1104E+01  0.1453E+02
     11.985  0.9044E+00  0.1461E+02
     12.070  0.7434E+00  0.1467E+02
     12.155  0.6601E+00  0.1473E+02
     12.241  0.6367E+00  0.1478E+02
     12.326  0.6710E+00  0.1484E+02
     12.411  0.7669E+00  0.1491E+02
     12.497  0.8868E+00  0.1498E+02
     12.582  0.9816E+00  0.1507E+02
     12.667  0.1027E+01  0.1515E+02
     12.753  0.9998E+00  0.1524E+02
     12.838  0.8765E+00  0.1531E+02
     12.923  0.6925E+00  0.1537E+02
     13.008  0.5299E+00  0.1542E+02
     13.094  0.4368E+00  0.1546E+02
     13.179  0.4013E+00  0.1549E+02
     13.264  0.4013E+00  0.1552E+02
     13.350  0.4294E+00  0.1556E+02
     13.435  0.4760E+00  0.1560E+02
     13.520  0.5315E+00  0.1565E+02
     13.606  0.5882E+00  0.1570E+02
     13.691  0.6101E+00  0.1575E+02
     13.776  0.5426E+00  0.1580E+02
     13.862  0.3886E+00  0.1583E+02
     13.947  0.2252E+00  0.1585E+02
     14.032  0.1239E+00  0.1586E+02
     14.117  0.9279E-01  0.1587E+02
     14.203  0.1028E+00  0.1588E+02
     14.288  0.1278E+00  0.1589E+02
     14.373  0.1518E+00  0.1590E+02
     14.459  0.1674E+00  0.1591E+02
     14.544  0.1779E+00  0.1593E+02
     14.629  0.1861E+00  0.1594E+02
     14.715  0.1772E+00  0.1596E+02
     14.800  0.1377E+00  0.1597E+02
     14.885  0.8159E-01  0.1598E+02
     14.970  0.3726E-01  0.1598E+02
     15.056  0.1801E-01  0.1598E+02
     15.141  0.1938E-01  0.1598E+02
     15.226  0.3067E-01  0.1599E+02
     15.312  0.4076E-01  0.1599E+02
     15.397  0.4168E-01  0.1599E+02
     15.482  0.3278E-01  0.1600E+02
     15.568  0.1984E-01  0.1600E+02
     15.653  0.9170E-02  0.1600E+02
     15.738  0.3196E-02  0.1600E+02
     15.824  0.8271E-03  0.1600E+02
     15.909  0.1566E-03  0.1600E+02
     15.994  0.2143E-04  0.1600E+02
     16.079  0.2099E-05  0.1600E+02
     16.165  0.1461E-06  0.1600E+02
     16.250  0.7193E-08  0.1600E+02
     16.335  0.2494E-09  0.1600E+02
     16.421  0.6074E-11  0.1600E+02
     16.506  0.1037E-12  0.1600E+02
     16.591  0.1239E-14  0.1600E+02
     16.677  0.9108E-17  0.1600E+02
     16.762  0.0000E+00  0.1600E+02
     16.847  0.0000E+00  0.1600E+02
     16.932  0.0000E+00  0.1600E+02
     17.018  0.0000E+00  0.1600E+02
     17.103  0.0000E+00  0.1600E+02
     17.188  0.0000E+00  0.1600E+02
     17.274  0.0000E+00  0.1600E+02
     17.359  0.0000E+00  0.1600E+02
     17.444  0.0000E+00  0.1600E+02
