 vasp.5.3.3 18Dez12 (build Jan 30 2013 10:57:47) complex                        
  
 executed on             LinuxIFC date 2016.06.21  15:02:33
 running on   16 total cores
 distrk:  each k-point on   16 cores,    1 groups
 distr:  one band on NCORES_PER_BAND=   4 cores,    4 groups


--------------------------------------------------------------------------------------------------------


 INCAR:
 POTCAR:    PAW_PBE Si 05Jan2001                  

 ----------------------------------------------------------------------------- 
|                                                                             |
|  ADVICE TO THIS USER RUNNING 'VASP/VAMP'   (HEAR YOUR MASTER'S VOICE ...):  |
|                                                                             |
|      You have switched on vdW-DFT.                                          |
|      This routine was written and supplied by Jiri Klimes.                  |
|      We recommed that you carefully read and cite the following             |
|      publication                                                            |
|      J. Klimes, D.R. Bowler, A. Michelides                                  |
|        J. Phys.: Cond Matt. 22 022201 (2010)                                |
|      J. Klimes, D.R. Bowler, A. Michelides                                  |
|        Phys. Rev. B. 83, 195131 (2011)                                      |
|      and references therein.                                                |
|                                                                             |
 ----------------------------------------------------------------------------- 

 POTCAR:    PAW_PBE Si 05Jan2001                  
   VRHFIN =Si: s2p2                                                             
   LEXCH  = PE                                                                  
   EATOM  =   103.0669 eV,    7.5752 Ry                                         
                                                                                
   TITEL  = PAW_PBE Si 05Jan2001                                                
   LULTRA =        F    use ultrasoft PP ?                                      
   IUNSCR =        1    unscreen: 0-lin 1-nonlin 2-no                           
   RPACOR =    1.500    partial core radius                                     
   POMASS =   28.085; ZVAL   =    4.000    mass and valenz                      
   RCORE  =    1.900    outmost cutoff radius                                   
   RWIGS  =    2.480; RWIGS  =    1.312    wigner-seitz radius (au A)           
   ENMAX  =  245.345; ENMIN  =  184.009 eV                                      
   ICORE  =        2    local potential                                         
   LCOR   =        T    correct aug charges                                     
   LPAW   =        T    paw PP                                                  
   EAUG   =  322.069                                                            
   DEXC   =    0.000                                                            
   RMAX   =    1.950    core radius for proj-oper                               
   RAUG   =    1.300    factor for augmentation sphere                          
   RDEP   =    1.993    radius for radial grids                                 
   RDEPT  =    1.837    core radius for aug-charge                              
                                                                                
   Atomic configuration                                                         
    6 entries                                                                   
     n  l   j            E        occ.                                          
     1  0  0.50     -1785.8828   2.0000                                         
     2  0  0.50      -139.4969   2.0000                                         
     2  1  1.50       -95.5546   6.0000                                         
     3  0  0.50       -10.8127   2.0000                                         
     3  1  0.50        -4.0811   2.0000                                         
     3  2  1.50        -4.0817   0.0000                                         
   Description                                                                  
     l       E           TYP  RCUT    TYP  RCUT                                 
     0    -10.8127223     23  1.900                                             
     0     -7.6451159     23  1.900                                             
     1     -4.0811372     23  1.900                                             
     1      2.4879257     23  1.900                                             
     2     -4.0817478      7  1.900                                             
  local pseudopotential read in
  partial core-charges read in
  partial kinetic energy density read in
  atomic valenz-charges read in
  non local Contribution for L=           0  read in
    real space projection operators read in
  non local Contribution for L=           0  read in
    real space projection operators read in
  non local Contribution for L=           1  read in
    real space projection operators read in
  non local Contribution for L=           1  read in
    real space projection operators read in
    PAW grid and wavefunctions read in
 
   number of l-projection  operators is LMAX  =           4
   number of lm-projection operators is LMMAX =           8
 

 ----------------------------------------------------------------------------- 
|                                                                             |
|  ADVICE TO THIS USER RUNNING 'VASP/VAMP'   (HEAR YOUR MASTER'S VOICE ...):  |
|                                                                             |
|      You enforced a specific xc-type in the INCAR file,                     |
|      a different type was found on the POTCAR file                          |
|          I HOPE YOU KNOW, WHAT YOU ARE  DOING                               |
|                                                                             |
 ----------------------------------------------------------------------------- 

  PAW_PBE Si 05Jan2001                  :
 energy of atom  1       EATOM= -103.0669
 kinetic energy error for atom=    0.0004 (will be added to EATOM!!)
 
 
 POSCAR: bulk@mp_149                             
  positions in direct lattice
  No initial velocities read in
 exchange correlation table for  LEXCH =       42
   RHO(1)=    0.500       N(1)  =     2000
   RHO(2)=  100.500       N(2)  =     4000
 


--------------------------------------------------------------------------------------------------------


 ion  position               nearest neighbor table
   1  0.875  0.875  0.875-   2 2.37   2 2.37   2 2.37   2 2.37
   2  0.125  0.125  0.125-   1 2.37   1 2.37   1 2.37   1 2.37
 
  LATTYP: Found a face centered cubic cell.
 ALAT       =     5.4687284904
  
  Lattice vectors:
  
 A1 = (   3.3488980000,   0.0000000000,   1.9334870000)
 A2 = (   1.1162990000,   3.1573720000,   1.9334870000)
 A3 = (   0.0000000000,   0.0000000000,   3.8669750000)


Analysis of symmetry for initial positions (statically):
=====================================================================
 Subroutine PRICEL returns:
 Original cell was already a primitive cell.
 

 Routine SETGRP: Setting up the symmetry group for a 
 face centered cubic supercell.


 Subroutine GETGRP returns: Found 48 space group operations
 (whereof 12 operations were pure point group operations)
 out of a pool of 48 trial point group operations.


The static configuration has the point symmetry D_3d.
 The point group associated with its full space group is O_h .


Analysis of symmetry for dynamics (positions and initial velocities):
=====================================================================
 Subroutine PRICEL returns:
 Original cell was already a primitive cell.
 

 Routine SETGRP: Setting up the symmetry group for a 
 face centered cubic supercell.


 Subroutine GETGRP returns: Found 48 space group operations
 (whereof 12 operations were pure point group operations)
 out of a pool of 48 trial point group operations.


The dynamic configuration has the point symmetry D_3d.
 The point group associated with its full space group is O_h .


 irot  :   1
 --------------------------------------------------------------------
 isymop:   1   0   0
           0   1   0
           0   0   1

 gtrans:     0.0000000     0.0000000     0.0000000

 ptrans:     0.0000000     0.0000000     0.0000000
 rotmap:
 (   1->   1)  (   2->   2) 


 irot  :   2
 --------------------------------------------------------------------
 isymop:  -1   0   0
           0  -1   0
           0   0  -1

 gtrans:     0.0000000     0.0000000     0.0000000

 ptrans:     0.0000000     0.0000000     0.0000000
 rotmap:
 (   1->   2)  (   2->   1) 


 irot  :   3
 --------------------------------------------------------------------
 isymop:   0   0   1
           1   0   0
           0   1   0

 gtrans:     0.0000000     0.0000000     0.0000000

 ptrans:     0.0000000     0.0000000     0.0000000
 rotmap:
 (   1->   1)  (   2->   2) 


 irot  :   4
 --------------------------------------------------------------------
 isymop:   0   0  -1
          -1   0   0
           0  -1   0

 gtrans:     0.0000000     0.0000000     0.0000000

 ptrans:     0.0000000     0.0000000     0.0000000
 rotmap:
 (   1->   2)  (   2->   1) 


 irot  :   5
 --------------------------------------------------------------------
 isymop:   0   1   0
           0   0   1
           1   0   0

 gtrans:     0.0000000     0.0000000     0.0000000

 ptrans:     0.0000000     0.0000000     0.0000000
 rotmap:
 (   1->   1)  (   2->   2) 


 irot  :   6
 --------------------------------------------------------------------
 isymop:   0  -1   0
           0   0  -1
          -1   0   0

 gtrans:     0.0000000     0.0000000     0.0000000

 ptrans:     0.0000000     0.0000000     0.0000000
 rotmap:
 (   1->   2)  (   2->   1) 


 irot  :   7
 --------------------------------------------------------------------
 isymop:  -1   0   0
           0   0  -1
           0  -1   0

 gtrans:     0.0000000     0.0000000     0.0000000

 ptrans:     0.0000000     0.0000000     0.0000000
 rotmap:
 (   1->   2)  (   2->   1) 


 irot  :   8
 --------------------------------------------------------------------
 isymop:   1   0   0
           0   0   1
           0   1   0

 gtrans:     0.0000000     0.0000000     0.0000000

 ptrans:     0.0000000     0.0000000     0.0000000
 rotmap:
 (   1->   1)  (   2->   2) 


 irot  :   9
 --------------------------------------------------------------------
 isymop:   0  -1   0
          -1   0   0
           0   0  -1

 gtrans:     0.0000000     0.0000000     0.0000000

 ptrans:     0.0000000     0.0000000     0.0000000
 rotmap:
 (   1->   2)  (   2->   1) 


 irot  :  10
 --------------------------------------------------------------------
 isymop:   0   1   0
           1   0   0
           0   0   1

 gtrans:     0.0000000     0.0000000     0.0000000

 ptrans:     0.0000000     0.0000000     0.0000000
 rotmap:
 (   1->   1)  (   2->   2) 


 irot  :  11
 --------------------------------------------------------------------
 isymop:   0   0  -1
           0  -1   0
          -1   0   0

 gtrans:     0.0000000     0.0000000     0.0000000

 ptrans:     0.0000000     0.0000000     0.0000000
 rotmap:
 (   1->   2)  (   2->   1) 


 irot  :  12
 --------------------------------------------------------------------
 isymop:   0   0   1
           0   1   0
           1   0   0

 gtrans:     0.0000000     0.0000000     0.0000000

 ptrans:     0.0000000     0.0000000     0.0000000
 rotmap:
 (   1->   1)  (   2->   2) 


 irot  :  13
 --------------------------------------------------------------------
 isymop:   1   1   1
           0   0  -1
          -1   0   0

 gtrans:     0.5000000     0.0000000     0.0000000

 ptrans:     0.0000000     0.0000000     0.0000000
 rotmap:
 (   1->   2)  (   2->   1) 


 irot  :  14
 --------------------------------------------------------------------
 isymop:  -1  -1  -1
           0   0   1
           1   0   0

 gtrans:     0.5000000     0.0000000     0.0000000

 ptrans:     0.0000000     0.0000000     0.0000000
 rotmap:
 (   1->   1)  (   2->   2) 


 irot  :  15
 --------------------------------------------------------------------
 isymop:   1   1   1
           0  -1   0
           0   0  -1

 gtrans:     0.5000000     0.0000000     0.0000000

 ptrans:     0.0000000     0.0000000     0.0000000
 rotmap:
 (   1->   2)  (   2->   1) 


 irot  :  16
 --------------------------------------------------------------------
 isymop:  -1  -1  -1
           0   1   0
           0   0   1

 gtrans:     0.5000000     0.0000000     0.0000000

 ptrans:     0.0000000     0.0000000     0.0000000
 rotmap:
 (   1->   1)  (   2->   2) 


 irot  :  17
 --------------------------------------------------------------------
 isymop:   1   1   1
          -1   0   0
           0  -1   0

 gtrans:     0.5000000     0.0000000     0.0000000

 ptrans:     0.0000000     0.0000000     0.0000000
 rotmap:
 (   1->   2)  (   2->   1) 


 irot  :  18
 --------------------------------------------------------------------
 isymop:  -1  -1  -1
           1   0   0
           0   1   0

 gtrans:     0.5000000     0.0000000     0.0000000

 ptrans:     0.0000000     0.0000000     0.0000000
 rotmap:
 (   1->   1)  (   2->   2) 


 irot  :  19
 --------------------------------------------------------------------
 isymop:   0   1   0
           1   0   0
          -1  -1  -1

 gtrans:     0.0000000     0.0000000     0.5000000

 ptrans:     0.0000000     0.0000000     0.0000000
 rotmap:
 (   1->   1)  (   2->   2) 


 irot  :  20
 --------------------------------------------------------------------
 isymop:   0  -1   0
          -1   0   0
           1   1   1

 gtrans:     0.0000000     0.0000000     0.5000000

 ptrans:     0.0000000     0.0000000     0.0000000
 rotmap:
 (   1->   2)  (   2->   1) 


 irot  :  21
 --------------------------------------------------------------------
 isymop:   1   0   0
           0   0   1
          -1  -1  -1

 gtrans:     0.0000000     0.0000000     0.5000000

 ptrans:     0.0000000     0.0000000     0.0000000
 rotmap:
 (   1->   1)  (   2->   2) 


 irot  :  22
 --------------------------------------------------------------------
 isymop:  -1   0   0
           0   0  -1
           1   1   1

 gtrans:     0.0000000     0.0000000     0.5000000

 ptrans:     0.0000000     0.0000000     0.0000000
 rotmap:
 (   1->   2)  (   2->   1) 


 irot  :  23
 --------------------------------------------------------------------
 isymop:   0   0   1
           0   1   0
          -1  -1  -1

 gtrans:     0.0000000     0.0000000     0.5000000

 ptrans:     0.0000000     0.0000000     0.0000000
 rotmap:
 (   1->   1)  (   2->   2) 


 irot  :  24
 --------------------------------------------------------------------
 isymop:   0   0  -1
           0  -1   0
           1   1   1

 gtrans:     0.0000000     0.0000000     0.5000000

 ptrans:     0.0000000     0.0000000     0.0000000
 rotmap:
 (   1->   2)  (   2->   1) 


 irot  :  25
 --------------------------------------------------------------------
 isymop:   0   0  -1
           1   1   1
           0  -1   0

 gtrans:     0.0000000     0.5000000     0.0000000

 ptrans:     0.0000000     0.0000000     0.0000000
 rotmap:
 (   1->   2)  (   2->   1) 


 irot  :  26
 --------------------------------------------------------------------
 isymop:   0   0   1
          -1  -1  -1
           0   1   0

 gtrans:     0.0000000     0.5000000     0.0000000

 ptrans:     0.0000000     0.0000000     0.0000000
 rotmap:
 (   1->   1)  (   2->   2) 


 irot  :  27
 --------------------------------------------------------------------
 isymop:   0  -1   0
           1   1   1
          -1   0   0

 gtrans:     0.0000000     0.5000000     0.0000000

 ptrans:     0.0000000     0.0000000     0.0000000
 rotmap:
 (   1->   2)  (   2->   1) 


 irot  :  28
 --------------------------------------------------------------------
 isymop:   0   1   0
          -1  -1  -1
           1   0   0

 gtrans:     0.0000000     0.5000000     0.0000000

 ptrans:     0.0000000     0.0000000     0.0000000
 rotmap:
 (   1->   1)  (   2->   2) 


 irot  :  29
 --------------------------------------------------------------------
 isymop:  -1   0   0
           1   1   1
           0   0  -1

 gtrans:     0.0000000     0.5000000     0.0000000

 ptrans:     0.0000000     0.0000000     0.0000000
 rotmap:
 (   1->   2)  (   2->   1) 


 irot  :  30
 --------------------------------------------------------------------
 isymop:   1   0   0
          -1  -1  -1
           0   0   1

 gtrans:     0.0000000     0.5000000     0.0000000

 ptrans:     0.0000000     0.0000000     0.0000000
 rotmap:
 (   1->   1)  (   2->   2) 


 irot  :  31
 --------------------------------------------------------------------
 isymop:  -1  -1  -1
           0   1   0
           1   0   0

 gtrans:     0.5000000     0.0000000     0.0000000

 ptrans:     0.0000000     0.0000000     0.0000000
 rotmap:
 (   1->   1)  (   2->   2) 


 irot  :  32
 --------------------------------------------------------------------
 isymop:   1   1   1
           0  -1   0
          -1   0   0

 gtrans:     0.5000000     0.0000000     0.0000000

 ptrans:     0.0000000     0.0000000     0.0000000
 rotmap:
 (   1->   2)  (   2->   1) 


 irot  :  33
 --------------------------------------------------------------------
 isymop:  -1  -1  -1
           1   0   0
           0   0   1

 gtrans:     0.5000000     0.0000000     0.0000000

 ptrans:     0.0000000     0.0000000     0.0000000
 rotmap:
 (   1->   1)  (   2->   2) 


 irot  :  34
 --------------------------------------------------------------------
 isymop:   1   1   1
          -1   0   0
           0   0  -1

 gtrans:     0.5000000     0.0000000     0.0000000

 ptrans:     0.0000000     0.0000000     0.0000000
 rotmap:
 (   1->   2)  (   2->   1) 


 irot  :  35
 --------------------------------------------------------------------
 isymop:  -1  -1  -1
           0   0   1
           0   1   0

 gtrans:     0.5000000     0.0000000     0.0000000

 ptrans:     0.0000000     0.0000000     0.0000000
 rotmap:
 (   1->   1)  (   2->   2) 


 irot  :  36
 --------------------------------------------------------------------
 isymop:   1   1   1
           0   0  -1
           0  -1   0

 gtrans:     0.5000000     0.0000000     0.0000000

 ptrans:     0.0000000     0.0000000     0.0000000
 rotmap:
 (   1->   2)  (   2->   1) 


 irot  :  37
 --------------------------------------------------------------------
 isymop:   0  -1   0
           0   0  -1
           1   1   1

 gtrans:     0.0000000     0.0000000     0.5000000

 ptrans:     0.0000000     0.0000000     0.0000000
 rotmap:
 (   1->   2)  (   2->   1) 


 irot  :  38
 --------------------------------------------------------------------
 isymop:   0   1   0
           0   0   1
          -1  -1  -1

 gtrans:     0.0000000     0.0000000     0.5000000

 ptrans:     0.0000000     0.0000000     0.0000000
 rotmap:
 (   1->   1)  (   2->   2) 


 irot  :  39
 --------------------------------------------------------------------
 isymop:  -1   0   0
           0  -1   0
           1   1   1

 gtrans:     0.0000000     0.0000000     0.5000000

 ptrans:     0.0000000     0.0000000     0.0000000
 rotmap:
 (   1->   2)  (   2->   1) 


 irot  :  40
 --------------------------------------------------------------------
 isymop:   1   0   0
           0   1   0
          -1  -1  -1

 gtrans:     0.0000000     0.0000000     0.5000000

 ptrans:     0.0000000     0.0000000     0.0000000
 rotmap:
 (   1->   1)  (   2->   2) 


 irot  :  41
 --------------------------------------------------------------------
 isymop:   0   0  -1
          -1   0   0
           1   1   1

 gtrans:     0.0000000     0.0000000     0.5000000

 ptrans:     0.0000000     0.0000000     0.0000000
 rotmap:
 (   1->   2)  (   2->   1) 


 irot  :  42
 --------------------------------------------------------------------
 isymop:   0   0   1
           1   0   0
          -1  -1  -1

 gtrans:     0.0000000     0.0000000     0.5000000

 ptrans:     0.0000000     0.0000000     0.0000000
 rotmap:
 (   1->   1)  (   2->   2) 


 irot  :  43
 --------------------------------------------------------------------
 isymop:   1   0   0
          -1  -1  -1
           0   1   0

 gtrans:     0.0000000     0.5000000     0.0000000

 ptrans:     0.0000000     0.0000000     0.0000000
 rotmap:
 (   1->   1)  (   2->   2) 


 irot  :  44
 --------------------------------------------------------------------
 isymop:  -1   0   0
           1   1   1
           0  -1   0

 gtrans:     0.0000000     0.5000000     0.0000000

 ptrans:     0.0000000     0.0000000     0.0000000
 rotmap:
 (   1->   2)  (   2->   1) 


 irot  :  45
 --------------------------------------------------------------------
 isymop:   0   0   1
          -1  -1  -1
           1   0   0

 gtrans:     0.0000000     0.5000000     0.0000000

 ptrans:     0.0000000     0.0000000     0.0000000
 rotmap:
 (   1->   1)  (   2->   2) 


 irot  :  46
 --------------------------------------------------------------------
 isymop:   0   0  -1
           1   1   1
          -1   0   0

 gtrans:     0.0000000     0.5000000     0.0000000

 ptrans:     0.0000000     0.0000000     0.0000000
 rotmap:
 (   1->   2)  (   2->   1) 


 irot  :  47
 --------------------------------------------------------------------
 isymop:   0   1   0
          -1  -1  -1
           0   0   1

 gtrans:     0.0000000     0.5000000     0.0000000

 ptrans:     0.0000000     0.0000000     0.0000000
 rotmap:
 (   1->   1)  (   2->   2) 


 irot  :  48
 --------------------------------------------------------------------
 isymop:   0  -1   0
           1   1   1
           0   0  -1

 gtrans:     0.0000000     0.5000000     0.0000000

 ptrans:     0.0000000     0.0000000     0.0000000
 rotmap:
 (   1->   2)  (   2->   1) 
 
 
 KPOINTS: Automatic kpoint scheme                 

Automatic generation of k-mesh.
Space group operators:
 irot       det(A)        alpha          n_x          n_y          n_z        tau_x        tau_y        tau_z
    1     1.000000     0.000000     1.000000     0.000000     0.000000     0.000000     0.000000     0.000000
    2    -1.000000     0.000000     1.000000     0.000000     0.000000     0.000000     0.000000     0.000000
    3     1.000000   120.000000    -0.471405    -0.333333    -0.816497     0.000000     0.000000     0.000000
    4    -1.000000   120.000000    -0.471405    -0.333333    -0.816497     0.000000     0.000000     0.000000
    5     1.000000   120.000000     0.471405     0.333334     0.816496     0.000000     0.000000     0.000000
    6    -1.000000   120.000000     0.471405     0.333334     0.816496     0.000000     0.000000     0.000000
    7     1.000000   180.000000     0.288675     0.816497    -0.500000     0.000000     0.000000     0.000000
    8    -1.000000   180.000000     0.288675     0.816497    -0.500000     0.000000     0.000000     0.000000
    9     1.000000   180.000000     0.577350    -0.816497     0.000000     0.000000     0.000000     0.000000
   10    -1.000000   180.000000     0.577350    -0.816497     0.000000     0.000000     0.000000     0.000000
   11     1.000000   180.000000     0.866025     0.000000    -0.500000     0.000000     0.000000     0.000000
   12    -1.000000   180.000000     0.866025     0.000000    -0.500000     0.000000     0.000000     0.000000
   13     1.000000    90.000000    -0.816496    -0.577350     0.000000     0.500000     0.000000     0.000000
   14    -1.000000    90.000000    -0.816496    -0.577350     0.000000     0.500000     0.000000     0.000000
   15     1.000000   180.000000     0.866025     0.000000     0.500000     0.500000     0.000000     0.000000
   16    -1.000000   180.000000     0.866025     0.000000     0.500000     0.500000     0.000000     0.000000
   17     1.000000    90.000000     0.408248    -0.577350     0.707107     0.500000     0.000000     0.000000
   18    -1.000000    90.000000     0.408248    -0.577350     0.707107     0.500000     0.000000     0.000000
   19     1.000000   180.000000     0.816497     0.577350     0.000000     0.000000     0.000000     0.500000
   20    -1.000000   180.000000     0.816497     0.577350     0.000000     0.000000     0.000000     0.500000
   21     1.000000   120.000000     0.942809    -0.333333     0.000000     0.000000     0.000000     0.500000
   22    -1.000000   120.000000     0.942809    -0.333333     0.000000     0.000000     0.000000     0.500000
   23     1.000000   120.000000     0.000000    -1.000000     0.000000     0.000000     0.000000     0.500000
   24    -1.000000   120.000000     0.000000    -1.000000     0.000000     0.000000     0.000000     0.500000
   25     1.000000    90.000000     0.816497     0.577350     0.000000     0.000000     0.500000     0.000000
   26    -1.000000    90.000000     0.816497     0.577350     0.000000     0.000000     0.500000     0.000000
   27     1.000000    90.000000     0.408248    -0.577350    -0.707107     0.000000     0.500000     0.000000
   28    -1.000000    90.000000     0.408248    -0.577350    -0.707107     0.000000     0.500000     0.000000
   29     1.000000   180.000000     0.288675     0.816497     0.500000     0.000000     0.500000     0.000000
   30    -1.000000   180.000000     0.288675     0.816497     0.500000     0.000000     0.500000     0.000000
   31     1.000000   120.000000     0.000000     1.000000     0.000000     0.500000     0.000000     0.000000
   32    -1.000000   120.000000     0.000000     1.000000     0.000000     0.500000     0.000000     0.000000
   33     1.000000   120.000000     0.471404     0.333333    -0.816497     0.500000     0.000000     0.000000
   34    -1.000000   120.000000     0.471404     0.333333    -0.816497     0.500000     0.000000     0.000000
   35     1.000000   180.000000    -0.408248     0.577350     0.707107     0.500000     0.000000     0.000000
   36    -1.000000   180.000000    -0.408248     0.577350     0.707107     0.500000     0.000000     0.000000
   37     1.000000    90.000000    -0.408248     0.577350    -0.707107     0.000000     0.000000     0.500000
   38    -1.000000    90.000000    -0.408248     0.577350    -0.707107     0.000000     0.000000     0.500000
   39     1.000000   180.000000     0.000000     0.000000     1.000000     0.000000     0.000000     0.500000
   40    -1.000000   180.000000     0.000000     0.000000     1.000000     0.000000     0.000000     0.500000
   41     1.000000    90.000000    -0.408248     0.577350     0.707107     0.000000     0.000000     0.500000
   42    -1.000000    90.000000    -0.408248     0.577350     0.707107     0.000000     0.000000     0.500000
   43     1.000000   120.000000    -0.942809     0.333333     0.000000     0.000000     0.500000     0.000000
   44    -1.000000   120.000000    -0.942809     0.333333     0.000000     0.000000     0.500000     0.000000
   45     1.000000   179.999999    -0.408248     0.577350    -0.707107     0.000000     0.500000     0.000000
   46    -1.000000   179.999999    -0.408248     0.577350    -0.707107     0.000000     0.500000     0.000000
   47     1.000000   120.000000    -0.471404    -0.333333     0.816497     0.000000     0.500000     0.000000
   48    -1.000000   120.000000    -0.471404    -0.333333     0.816497     0.000000     0.500000     0.000000
 
 Subroutine IBZKPT returns following result:
 ===========================================
 
 Found    220 irreducible k-points:
 
 Following reciprocal coordinates:
            Coordinates               Weight
  0.000000  0.000000  0.000000      1.000000
  0.052632  0.000000  0.000000      8.000000
  0.105263  0.000000  0.000000      8.000000
  0.157895  0.000000  0.000000      8.000000
  0.210526  0.000000  0.000000      8.000000
  0.263158  0.000000  0.000000      8.000000
  0.315789  0.000000  0.000000      8.000000
  0.368421  0.000000  0.000000      8.000000
  0.421053  0.000000  0.000000      8.000000
  0.473684  0.000000  0.000000      8.000000
  0.052632  0.052632  0.000000      6.000000
  0.105263  0.052632  0.000000     24.000000
  0.157895  0.052632  0.000000     24.000000
  0.210526  0.052632  0.000000     24.000000
  0.263158  0.052632  0.000000     24.000000
  0.315789  0.052632  0.000000     24.000000
  0.368421  0.052632  0.000000     24.000000
  0.421053  0.052632  0.000000     24.000000
  0.473684  0.052632  0.000000     24.000000
 -0.473684  0.052632  0.000000     24.000000
 -0.421053  0.052632  0.000000     24.000000
 -0.368421  0.052632  0.000000     24.000000
 -0.315789  0.052632  0.000000     24.000000
 -0.263158  0.052632  0.000000     24.000000
 -0.210526  0.052632  0.000000     24.000000
 -0.157895  0.052632  0.000000     24.000000
 -0.105263  0.052632  0.000000     24.000000
 -0.052632  0.052632  0.000000     12.000000
  0.105263  0.105263  0.000000      6.000000
  0.157895  0.105263  0.000000     24.000000
  0.210526  0.105263  0.000000     24.000000
  0.263158  0.105263  0.000000     24.000000
  0.315789  0.105263  0.000000     24.000000
  0.368421  0.105263  0.000000     24.000000
  0.421053  0.105263  0.000000     24.000000
  0.473684  0.105263  0.000000     24.000000
 -0.473684  0.105263  0.000000     24.000000
 -0.421053  0.105263  0.000000     24.000000
 -0.368421  0.105263  0.000000     24.000000
 -0.315789  0.105263  0.000000     24.000000
 -0.263158  0.105263  0.000000     24.000000
 -0.210526  0.105263  0.000000     24.000000
 -0.157895  0.105263  0.000000     24.000000
 -0.105263  0.105263  0.000000     12.000000
  0.157895  0.157895  0.000000      6.000000
  0.210526  0.157895  0.000000     24.000000
  0.263158  0.157895  0.000000     24.000000
  0.315789  0.157895  0.000000     24.000000
  0.368421  0.157895  0.000000     24.000000
  0.421053  0.157895  0.000000     24.000000
  0.473684  0.157895  0.000000     24.000000
 -0.473684  0.157895  0.000000     24.000000
 -0.421053  0.157895  0.000000     24.000000
 -0.368421  0.157895  0.000000     24.000000
 -0.315789  0.157895  0.000000     24.000000
 -0.263158  0.157895  0.000000     24.000000
 -0.210526  0.157895  0.000000     24.000000
 -0.157895  0.157895  0.000000     12.000000
  0.210526  0.210526  0.000000      6.000000
  0.263158  0.210526  0.000000     24.000000
  0.315789  0.210526  0.000000     24.000000
  0.368421  0.210526  0.000000     24.000000
  0.421053  0.210526  0.000000     24.000000
  0.473684  0.210526  0.000000     24.000000
 -0.473684  0.210526  0.000000     24.000000
 -0.421053  0.210526  0.000000     24.000000
 -0.368421  0.210526  0.000000     24.000000
 -0.315789  0.210526  0.000000     24.000000
 -0.263158  0.210526  0.000000     24.000000
 -0.210526  0.210526  0.000000     12.000000
  0.263158  0.263158  0.000000      6.000000
  0.315789  0.263158  0.000000     24.000000
  0.368421  0.263158  0.000000     24.000000
  0.421053  0.263158  0.000000     24.000000
  0.473684  0.263158  0.000000     24.000000
 -0.473684  0.263158  0.000000     24.000000
 -0.421053  0.263158  0.000000     24.000000
 -0.368421  0.263158  0.000000     24.000000
 -0.315789  0.263158  0.000000     24.000000
 -0.263158  0.263158  0.000000     12.000000
  0.315789  0.315789  0.000000      6.000000
  0.368421  0.315789  0.000000     24.000000
  0.421053  0.315789  0.000000     24.000000
  0.473684  0.315789  0.000000     24.000000
 -0.473684  0.315789  0.000000     24.000000
 -0.421053  0.315789  0.000000     24.000000
 -0.368421  0.315789  0.000000     24.000000
 -0.315789  0.315789  0.000000     12.000000
  0.368421  0.368421  0.000000      6.000000
  0.421053  0.368421  0.000000     24.000000
  0.473684  0.368421  0.000000     24.000000
 -0.473684  0.368421  0.000000     24.000000
 -0.421053  0.368421  0.000000     24.000000
 -0.368421  0.368421  0.000000     12.000000
  0.421053  0.421053  0.000000      6.000000
  0.473684  0.421053  0.000000     24.000000
 -0.473684  0.421053  0.000000     24.000000
 -0.421053  0.421053  0.000000     12.000000
  0.473684  0.473684  0.000000      6.000000
 -0.473684  0.473684  0.000000     12.000000
  0.157895  0.105263  0.052632     24.000000
  0.210526  0.105263  0.052632     48.000000
  0.263158  0.105263  0.052632     48.000000
  0.315789  0.105263  0.052632     48.000000
  0.368421  0.105263  0.052632     48.000000
  0.421053  0.105263  0.052632     48.000000
  0.473684  0.105263  0.052632     48.000000
 -0.473684  0.105263  0.052632     48.000000
  0.210526  0.157895  0.052632     24.000000
  0.263158  0.157895  0.052632     48.000000
  0.315789  0.157895  0.052632     48.000000
  0.368421  0.157895  0.052632     48.000000
  0.421053  0.157895  0.052632     48.000000
  0.473684  0.157895  0.052632     48.000000
 -0.473684  0.157895  0.052632     48.000000
 -0.421053  0.157895  0.052632     48.000000
 -0.368421  0.157895  0.052632     48.000000
 -0.315789  0.157895  0.052632     48.000000
 -0.263158  0.157895  0.052632     48.000000
 -0.210526  0.157895  0.052632     48.000000
 -0.157895  0.157895  0.052632     48.000000
 -0.105263  0.157895  0.052632     24.000000
  0.263158  0.210526  0.052632     24.000000
  0.315789  0.210526  0.052632     48.000000
  0.368421  0.210526  0.052632     48.000000
  0.421053  0.210526  0.052632     48.000000
  0.473684  0.210526  0.052632     48.000000
 -0.473684  0.210526  0.052632     48.000000
 -0.421053  0.210526  0.052632     48.000000
 -0.368421  0.210526  0.052632     48.000000
 -0.315789  0.210526  0.052632     48.000000
 -0.263158  0.210526  0.052632     48.000000
 -0.210526  0.210526  0.052632     48.000000
 -0.157895  0.210526  0.052632     24.000000
  0.315789  0.263158  0.052632     24.000000
  0.368421  0.263158  0.052632     48.000000
  0.421053  0.263158  0.052632     48.000000
  0.473684  0.263158  0.052632     48.000000
 -0.473684  0.263158  0.052632     48.000000
 -0.421053  0.263158  0.052632     48.000000
 -0.368421  0.263158  0.052632     48.000000
 -0.315789  0.263158  0.052632     48.000000
 -0.263158  0.263158  0.052632     48.000000
 -0.210526  0.263158  0.052632     24.000000
  0.368421  0.315789  0.052632     24.000000
  0.421053  0.315789  0.052632     48.000000
  0.473684  0.315789  0.052632     48.000000
 -0.473684  0.315789  0.052632     48.000000
 -0.421053  0.315789  0.052632     48.000000
 -0.368421  0.315789  0.052632     48.000000
 -0.315789  0.315789  0.052632     48.000000
 -0.263158  0.315789  0.052632     24.000000
  0.421053  0.368421  0.052632     24.000000
  0.473684  0.368421  0.052632     48.000000
 -0.473684  0.368421  0.052632     48.000000
 -0.421053  0.368421  0.052632     48.000000
 -0.368421  0.368421  0.052632     48.000000
 -0.315789  0.368421  0.052632     24.000000
  0.473684  0.421053  0.052632     24.000000
 -0.473684  0.421053  0.052632     48.000000
 -0.421053  0.421053  0.052632     48.000000
 -0.368421  0.421053  0.052632     24.000000
 -0.473684  0.473684  0.052632     24.000000
 -0.421053  0.473684  0.052632     24.000000
  0.315789  0.210526  0.105263     24.000000
  0.368421  0.210526  0.105263     48.000000
  0.421053  0.210526  0.105263     48.000000
  0.473684  0.210526  0.105263     48.000000
 -0.473684  0.210526  0.105263     48.000000
 -0.421053  0.210526  0.105263     48.000000
  0.368421  0.263158  0.105263     24.000000
  0.421053  0.263158  0.105263     48.000000
  0.473684  0.263158  0.105263     48.000000
 -0.473684  0.263158  0.105263     48.000000
 -0.421053  0.263158  0.105263     48.000000
 -0.368421  0.263158  0.105263     48.000000
 -0.315789  0.263158  0.105263     48.000000
 -0.263158  0.263158  0.105263     48.000000
 -0.210526  0.263158  0.105263     48.000000
 -0.157895  0.263158  0.105263     24.000000
  0.421053  0.315789  0.105263     24.000000
  0.473684  0.315789  0.105263     48.000000
 -0.473684  0.315789  0.105263     48.000000
 -0.421053  0.315789  0.105263     48.000000
 -0.368421  0.315789  0.105263     48.000000
 -0.315789  0.315789  0.105263     48.000000
 -0.263158  0.315789  0.105263     48.000000
 -0.210526  0.315789  0.105263     24.000000
  0.473684  0.368421  0.105263     24.000000
 -0.473684  0.368421  0.105263     48.000000
 -0.421053  0.368421  0.105263     48.000000
 -0.368421  0.368421  0.105263     48.000000
 -0.315789  0.368421  0.105263     48.000000
 -0.263158  0.368421  0.105263     24.000000
 -0.473684  0.421053  0.105263     24.000000
 -0.421053  0.421053  0.105263     48.000000
 -0.368421  0.421053  0.105263     48.000000
 -0.315789  0.421053  0.105263     24.000000
 -0.421053  0.473684  0.105263     24.000000
 -0.368421  0.473684  0.105263     24.000000
  0.473684  0.315789  0.157895     24.000000
 -0.473684  0.315789  0.157895     48.000000
 -0.421053  0.315789  0.157895     48.000000
 -0.368421  0.315789  0.157895     48.000000
 -0.473684  0.368421  0.157895     24.000000
 -0.421053  0.368421  0.157895     48.000000
 -0.368421  0.368421  0.157895     48.000000
 -0.315789  0.368421  0.157895     48.000000
 -0.263158  0.368421  0.157895     48.000000
 -0.210526  0.368421  0.157895     24.000000
 -0.421053  0.421053  0.157895     24.000000
 -0.368421  0.421053  0.157895     48.000000
 -0.315789  0.421053  0.157895     48.000000
 -0.263158  0.421053  0.157895     24.000000
 -0.368421  0.473684  0.157895     24.000000
 -0.315789  0.473684  0.157895     24.000000
 -0.368421  0.421053  0.210526     24.000000
 -0.315789  0.421053  0.210526     48.000000
 -0.315789  0.473684  0.210526     24.000000
 -0.263158  0.473684  0.210526     24.000000
 
 Following cartesian coordinates:
            Coordinates               Weight
  0.000000  0.000000  0.000000      1.000000
  0.015716 -0.005556  0.000000      8.000000
  0.031432 -0.011113  0.000000      8.000000
  0.047148 -0.016669  0.000000      8.000000
  0.062864 -0.022226  0.000000      8.000000
  0.078580 -0.027782  0.000000      8.000000
  0.094297 -0.033339  0.000000      8.000000
  0.110013 -0.038895  0.000000      8.000000
  0.125729 -0.044452  0.000000      8.000000
  0.141445 -0.050008  0.000000      8.000000
  0.015716  0.011113  0.000000      6.000000
  0.031432  0.005556  0.000000     24.000000
  0.047148  0.000000  0.000000     24.000000
  0.062864 -0.005556  0.000000     24.000000
  0.078580 -0.011113  0.000000     24.000000
  0.094297 -0.016669  0.000000     24.000000
  0.110013 -0.022226  0.000000     24.000000
  0.125729 -0.027782  0.000000     24.000000
  0.141445 -0.033339  0.000000     24.000000
 -0.141445  0.066678  0.000000     24.000000
 -0.125729  0.061121  0.000000     24.000000
 -0.110013  0.055565  0.000000     24.000000
 -0.094297  0.050008  0.000000     24.000000
 -0.078580  0.044452  0.000000     24.000000
 -0.062864  0.038895  0.000000     24.000000
 -0.047148  0.033339  0.000000     24.000000
 -0.031432  0.027782  0.000000     24.000000
 -0.015716  0.022226  0.000000     12.000000
  0.031432  0.022226  0.000000      6.000000
  0.047148  0.016669  0.000000     24.000000
  0.062864  0.011113  0.000000     24.000000
  0.078580  0.005556  0.000000     24.000000
  0.094297  0.000000  0.000000     24.000000
  0.110013 -0.005556  0.000000     24.000000
  0.125729 -0.011113  0.000000     24.000000
  0.141445 -0.016669  0.000000     24.000000
 -0.141445  0.083347  0.000000     24.000000
 -0.125729  0.077791  0.000000     24.000000
 -0.110013  0.072234  0.000000     24.000000
 -0.094297  0.066678  0.000000     24.000000
 -0.078580  0.061121  0.000000     24.000000
 -0.062864  0.055565  0.000000     24.000000
 -0.047148  0.050008  0.000000     24.000000
 -0.031432  0.044452  0.000000     12.000000
  0.047148  0.033339  0.000000      6.000000
  0.062864  0.027782  0.000000     24.000000
  0.078580  0.022226  0.000000     24.000000
  0.094297  0.016669  0.000000     24.000000
  0.110013  0.011113  0.000000     24.000000
  0.125729  0.005556  0.000000     24.000000
  0.141445  0.000000  0.000000     24.000000
 -0.141445  0.100017  0.000000     24.000000
 -0.125729  0.094460  0.000000     24.000000
 -0.110013  0.088904  0.000000     24.000000
 -0.094297  0.083347  0.000000     24.000000
 -0.078580  0.077791  0.000000     24.000000
 -0.062864  0.072234  0.000000     24.000000
 -0.047148  0.066678  0.000000     12.000000
  0.062864  0.044452  0.000000      6.000000
  0.078580  0.038895  0.000000     24.000000
  0.094297  0.033339  0.000000     24.000000
  0.110013  0.027782  0.000000     24.000000
  0.125729  0.022226  0.000000     24.000000
  0.141445  0.016669  0.000000     24.000000
 -0.141445  0.116686  0.000000     24.000000
 -0.125729  0.111129  0.000000     24.000000
 -0.110013  0.105573  0.000000     24.000000
 -0.094297  0.100017  0.000000     24.000000
 -0.078580  0.094460  0.000000     24.000000
 -0.062864  0.088904  0.000000     12.000000
  0.078580  0.055565  0.000000      6.000000
  0.094297  0.050008  0.000000     24.000000
  0.110013  0.044452  0.000000     24.000000
  0.125729  0.038895  0.000000     24.000000
  0.141445  0.033339  0.000000     24.000000
 -0.141445  0.133355  0.000000     24.000000
 -0.125729  0.127799  0.000000     24.000000
 -0.110013  0.122242  0.000000     24.000000
 -0.094297  0.116686  0.000000     24.000000
 -0.078580  0.111129  0.000000     12.000000
  0.094297  0.066678  0.000000      6.000000
  0.110013  0.061121  0.000000     24.000000
  0.125729  0.055565  0.000000     24.000000
  0.141445  0.050008  0.000000     24.000000
 -0.141445  0.150025  0.000000     24.000000
 -0.125729  0.144468  0.000000     24.000000
 -0.110013  0.138912  0.000000     24.000000
 -0.094297  0.133355  0.000000     12.000000
  0.110013  0.077791  0.000000      6.000000
  0.125729  0.072234  0.000000     24.000000
  0.141445  0.066678  0.000000     24.000000
 -0.141445  0.166694  0.000000     24.000000
 -0.125729  0.161138  0.000000     24.000000
 -0.110013  0.155581  0.000000     12.000000
  0.125729  0.088904  0.000000      6.000000
  0.141445  0.083347  0.000000     24.000000
 -0.141445  0.183364  0.000000     24.000000
 -0.125729  0.177807  0.000000     12.000000
  0.141445  0.100017  0.000000      6.000000
 -0.141445  0.200033  0.000000     12.000000
  0.039290  0.011113  0.013611     24.000000
  0.055006  0.005556  0.013611     48.000000
  0.070722  0.000000  0.013611     48.000000
  0.086438 -0.005556  0.013611     48.000000
  0.102155 -0.011113  0.013611     48.000000
  0.117871 -0.016669  0.013611     48.000000
  0.133587 -0.022226  0.013611     48.000000
 -0.149303  0.077791  0.013611     48.000000
  0.055006  0.022226  0.013611     24.000000
  0.070722  0.016669  0.013611     48.000000
  0.086438  0.011113  0.013611     48.000000
  0.102155  0.005556  0.013611     48.000000
  0.117871  0.000000  0.013611     48.000000
  0.133587 -0.005556  0.013611     48.000000
 -0.149303  0.094460  0.013611     48.000000
 -0.133587  0.088904  0.013611     48.000000
 -0.117871  0.083347  0.013611     48.000000
 -0.102155  0.077791  0.013611     48.000000
 -0.086438  0.072234  0.013611     48.000000
 -0.070722  0.066678  0.013611     48.000000
 -0.055006  0.061121  0.013611     48.000000
 -0.039290  0.055565  0.013611     24.000000
  0.070722  0.033339  0.013611     24.000000
  0.086438  0.027782  0.013611     48.000000
  0.102155  0.022226  0.013611     48.000000
  0.117871  0.016669  0.013611     48.000000
  0.133587  0.011113  0.013611     48.000000
 -0.149303  0.111129  0.013611     48.000000
 -0.133587  0.105573  0.013611     48.000000
 -0.117871  0.100017  0.013611     48.000000
 -0.102155  0.094460  0.013611     48.000000
 -0.086438  0.088904  0.013611     48.000000
 -0.070722  0.083347  0.013611     48.000000
 -0.055006  0.077791  0.013611     24.000000
  0.086438  0.044452  0.013611     24.000000
  0.102155  0.038895  0.013611     48.000000
  0.117871  0.033339  0.013611     48.000000
  0.133587  0.027782  0.013611     48.000000
 -0.149303  0.127799  0.013611     48.000000
 -0.133587  0.122242  0.013611     48.000000
 -0.117871  0.116686  0.013611     48.000000
 -0.102155  0.111129  0.013611     48.000000
 -0.086438  0.105573  0.013611     48.000000
 -0.070722  0.100017  0.013611     24.000000
  0.102155  0.055565  0.013611     24.000000
  0.117871  0.050008  0.013611     48.000000
  0.133587  0.044452  0.013611     48.000000
 -0.149303  0.144468  0.013611     48.000000
 -0.133587  0.138912  0.013611     48.000000
 -0.117871  0.133355  0.013611     48.000000
 -0.102155  0.127799  0.013611     48.000000
 -0.086438  0.122242  0.013611     24.000000
  0.117871  0.066678  0.013611     24.000000
  0.133587  0.061121  0.013611     48.000000
 -0.149303  0.161138  0.013611     48.000000
 -0.133587  0.155581  0.013611     48.000000
 -0.117871  0.150025  0.013611     48.000000
 -0.102155  0.144468  0.013611     24.000000
  0.133587  0.077791  0.013611     24.000000
 -0.149303  0.177807  0.013611     48.000000
 -0.133587  0.172251  0.013611     48.000000
 -0.117871  0.166694  0.013611     24.000000
 -0.149303  0.194477  0.013611     24.000000
 -0.133587  0.188920  0.013611     24.000000
  0.078580  0.022226  0.027221     24.000000
  0.094297  0.016669  0.027221     48.000000
  0.110013  0.011113  0.027221     48.000000
  0.125729  0.005556  0.027221     48.000000
 -0.157161  0.105573  0.027221     48.000000
 -0.141445  0.100017  0.027221     48.000000
  0.094297  0.033339  0.027221     24.000000
  0.110013  0.027782  0.027221     48.000000
  0.125729  0.022226  0.027221     48.000000
 -0.157161  0.122242  0.027221     48.000000
 -0.141445  0.116686  0.027221     48.000000
 -0.125729  0.111129  0.027221     48.000000
 -0.110013  0.105573  0.027221     48.000000
 -0.094297  0.100017  0.027221     48.000000
 -0.078580  0.094460  0.027221     48.000000
 -0.062864  0.088904  0.027221     24.000000
  0.110013  0.044452  0.027221     24.000000
  0.125729  0.038895  0.027221     48.000000
 -0.157161  0.138912  0.027221     48.000000
 -0.141445  0.133355  0.027221     48.000000
 -0.125729  0.127799  0.027221     48.000000
 -0.110013  0.122242  0.027221     48.000000
 -0.094297  0.116686  0.027221     48.000000
 -0.078580  0.111130  0.027221     24.000000
  0.125729  0.055565  0.027221     24.000000
 -0.157161  0.155581  0.027221     48.000000
 -0.141445  0.150025  0.027221     48.000000
 -0.125729  0.144468  0.027221     48.000000
 -0.110013  0.138912  0.027221     48.000000
 -0.094297  0.133355  0.027221     24.000000
 -0.157161  0.172251  0.027221     24.000000
 -0.141445  0.166694  0.027221     48.000000
 -0.125729  0.161138  0.027221     48.000000
 -0.110013  0.155581  0.027221     24.000000
 -0.141445  0.183364  0.027221     24.000000
 -0.125729  0.177807  0.027221     24.000000
  0.117871  0.033339  0.040832     24.000000
 -0.165019  0.133355  0.040832     48.000000
 -0.149303  0.127799  0.040832     48.000000
 -0.133587  0.122242  0.040832     48.000000
 -0.165019  0.150025  0.040832     24.000000
 -0.149303  0.144468  0.040832     48.000000
 -0.133587  0.138912  0.040832     48.000000
 -0.117871  0.133355  0.040832     48.000000
 -0.102155  0.127799  0.040832     48.000000
 -0.086438  0.122242  0.040832     24.000000
 -0.149303  0.161138  0.040832     24.000000
 -0.133587  0.155581  0.040832     48.000000
 -0.117871  0.150025  0.040832     48.000000
 -0.102155  0.144468  0.040832     24.000000
 -0.133587  0.172251  0.040832     24.000000
 -0.117871  0.166694  0.040832     24.000000
 -0.141445  0.150025  0.054442     24.000000
 -0.125729  0.144468  0.054442     48.000000
 -0.125729  0.161138  0.054442     24.000000
 -0.110013  0.155581  0.054442     24.000000
 


--------------------------------------------------------------------------------------------------------




 Dimension of arrays:
   k-points           NKPTS =    220   k-points in BZ     NKDIM =    220   number of bands    NBANDS=      8
   number of dos      NEDOS =    301   number of ions     NIONS =      2
   non local maximal  LDIM  =      4   non local SUM 2l+1 LMDIM =      8
   total plane-waves  NPLWV =  27000
   max r-space proj   IRMAX =      1   max aug-charges    IRDMAX=  22275
   dimension x,y,z NGX =    30 NGY =   30 NGZ =   30
   dimension x,y,z NGXF=    60 NGYF=   60 NGZF=   60
   support grid    NGXF=    60 NGYF=   60 NGZF=   60
   ions per type =               2
 NGX,Y,Z   is equivalent  to a cutoff of  12.90, 12.90, 12.90 a.u.
 NGXF,Y,Z  is equivalent  to a cutoff of  25.79, 25.79, 25.79 a.u.


 I would recommend the setting:
   dimension x,y,z NGX =    30 NGY =   30 NGZ =   30
 SYSTEM =  unknown system                          
 POSCAR =  bulk@mp_149                             

 Startparameter for this run:
   NWRITE =      2    write-flag & timer
   PREC   = accura    normal or accurate (medium, high low for compatibility)
   ISTART =      0    job   : 0-new  1-cont  2-samecut
   ICHARG =      2    charge: 1-file 2-atom 10-const
   ISPIN  =      1    spin polarized calculation?
   LNONCOLLINEAR =      F non collinear calculations
   LSORBIT =      F    spin-orbit coupling
   INIWAV =      1    electr: 0-lowe 1-rand  2-diag
   LASPH  =      F    aspherical Exc in radial PAW
   METAGGA=      F    non-selfconsistent MetaGGA calc.

 Electronic Relaxation 1
   ENCUT  =  550.0 eV  40.42 Ry    6.36 a.u.   7.39  7.39  7.39*2*pi/ulx,y,z
   ENINI  =  550.0     initial cutoff
   ENAUG  =  322.1 eV  augmentation charge cutoff
   NELM   =    400;   NELMIN=  2; NELMDL= -5     # of ELM steps 
   EDIFF  = 0.1E-06   stopping-criterion for ELM
   LREAL  =      F    real-space projection
   NLSPLINE    = F    spline interpolate recip. space projectors
   LCOMPAT=      F    compatible to vasp.4.4
   GGA_COMPAT  = T    GGA compatible to vasp.4.4-vasp.4.6
   LMAXPAW     = -100 max onsite density
   LMAXMIX     =    2 max onsite mixed and CHGCAR
   VOSKOWN=      0    Vosko Wilk Nusair interpolation
   ROPT   =    0.00000
 Ionic relaxation
   EDIFFG = 0.1E-05   stopping-criterion for IOM
   NSW    =      1    number of steps for IOM
   NBLOCK =      1;   KBLOCK =      1    inner block; outer block 
   IBRION =      2    ionic relax: 0-MD 1-quasi-New 2-CG
   NFREE  =      1    steps in history (QN), initial steepest desc. (CG)
   ISIF   =      2    stress and relaxation
   IWAVPR =     11    prediction:  0-non 1-charg 2-wave 3-comb
   ISYM   =      2    0-nonsym 1-usesym 2-fastsym
   LCORR  =      T    Harris-Foulkes like correction to forces

   POTIM  = 0.5000    time-step for ionic-motion
   TEIN   =    0.0    initial temperature
   TEBEG  =    0.0;   TEEND  =   0.0 temperature during run
   SMASS  =  -3.00    Nose mass-parameter (am)
   estimated Nose-frequenzy (Omega)   =  0.10E-29 period in steps =****** mass=  -0.342E-27a.u.
   SCALEE = 1.0000    scale energy and forces
   NPACO  =    256;   APACO  = 16.0  distance and # of slots for P.C.
   PSTRESS=    0.0 pullay stress

  Mass of Ions in am
   POMASS =  28.09
  Ionic Valenz
   ZVAL   =   4.00
  Atomic Wigner-Seitz radii
   RWIGS  =  -1.00
  virtual crystal weights 
   VCA    =   1.00
   NELECT =       8.0000    total number of electrons
   NUPDOWN=      -1.0000    fix difference up-down

 DOS related values:
   EMIN   =  10.00;   EMAX   =-10.00  energy-range for DOS
   EFERMI =   0.00
   ISMEAR =     0;   SIGMA  =   0.20  broadening in eV -4-tet -1-fermi 0-gaus

 Electronic relaxation 2 (details)
   IALGO  =     38    algorithm
   LDIAG  =      T    sub-space diagonalisation (order eigenvalues)
   LSUBROT=      T    optimize rotation matrix (better conditioning)
   TURBO    =      0    0=normal 1=particle mesh
   IRESTART =      0    0=no restart 2=restart with 2 vectors
   NREBOOT  =      0    no. of reboots
   NMIN     =      0    reboot dimension
   EREF     =   0.00    reference energy to select bands
   IMIX   =      4    mixing-type and parameters
     AMIX     =   0.40;   BMIX     =  1.00
     AMIX_MAG =   1.60;   BMIX_MAG =  1.00
     AMIN     =   0.10
     WC   =   100.;   INIMIX=   1;  MIXPRE=   1;  MAXMIX= -45

 Intra band minimization:
   WEIMIN = 0.0010     energy-eigenvalue tresh-hold
   EBREAK =  0.31E-08  absolut break condition
   DEPER  =   0.30     relativ break condition  

   TIME   =   0.40     timestep for ELM

  volume/ion in A,a.u.               =      20.44       137.96
  Fermi-wavevector in a.u.,A,eV,Ry     =   0.950397  1.795990 12.289528  0.903255
  Thomas-Fermi vector in A             =   2.078770
 
 Write flags
   LWAVE  =      F    write WAVECAR
   LCHARG =      F    write CHGCAR
   LVTOT  =      F    write LOCPOT, total local potential
   LVHAR  =      F    write LOCPOT, Hartree potential only
   LELF   =      F    write electronic localiz. function (ELF)
   LORBIT =      0    0 simple, 1 ext, 2 COOP (PROOUT)


 Dipole corrections
   LMONO  =      F    monopole corrections only (constant potential shift)
   LDIPOL =      F    correct potential (dipole corrections)
   IDIPOL =      0    1-x, 2-y, 3-z, 4-all directions 
   EPSILON=  1.0000000 bulk dielectric constant

 Exchange correlation treatment:
   GGA     =    BO    GGA type
   LEXCH   =    42    internal setting for exchange type
   VOSKOWN=      0    Vosko Wilk Nusair interpolation
   LHFCALC =     F    Hartree Fock is set to
   LHFONE  =     F    Hartree Fock one center treatment
   AEXX    =    0.0000 exact exchange contribution

 vdW DFT:
   LUSE_VDW   =     T    switch on vdW DFT
   Zab_VDW    =-.8491    correlation parameter
   PARAM1     =0.1833
   PARAM2     =0.2200
   PARAM3     =0.0000

 Linear response parameters
   LEPSILON=     F    determine dielectric tensor
   LRPA    =     F    only Hartree local field effects (RPA)
   LNABLA  =     F    use nabla operator in PAW spheres
   LVEL    =     F    velocity operator in full k-point grid
   LINTERFAST=   F  fast interpolation
   KINTER  =     0    interpolate to denser k-point grid
   CSHIFT  =0.1000    complex shift for real part using Kramers Kronig
   OMEGAMAX=  -1.0    maximum frequency
   DEG_THRESHOLD= 0.2000000E-02 threshold for treating states as degnerate
   RTIME   =    0.100 relaxation time in fs

 Orbital magnetization related:
   ORBITALMAG=     F  switch on orbital magnetization
   LCHIMAG   =     F  perturbation theory with respect to B field
   DQ        =  0.001000  dq finite difference perturbation B field



--------------------------------------------------------------------------------------------------------


 conjugate gradient relaxation of ions
 charge density and potential will be updated during run
 non-spin polarized calculation
 Variant of blocked Davidson
 Davidson routine will perform the subspace rotation
 perform sub-space diagonalisation
    after iterative eigenvector-optimisation
 modified Broyden-mixing scheme, WC =      100.0
 initial mixing is a Kerker type mixing with AMIX =  0.4000 and BMIX =      1.0000
 Hartree-type preconditioning will be used
 using additional bands            4
 reciprocal scheme for non local part
 use partial core corrections
 calculate Harris-corrections to forces 
   (improved forces if not selfconsistent)
 use gradient corrections 
 use of overlap-Matrix (Vanderbilt PP)
 Gauss-broadening in eV      SIGMA  =   0.20


--------------------------------------------------------------------------------------------------------


  energy-cutoff  :      550.00
  volume of cell :       40.89
      direct lattice vectors                 reciprocal lattice vectors
     3.348898000  0.000000000  1.933487000     0.298605691 -0.105573000  0.000000000
     1.116299000  3.157372000  1.933487000     0.000000000  0.316719094  0.000000000
     0.000000000  0.000000000  3.866975000    -0.149302807 -0.105573020  0.258600069

  length of vectors
     3.866974243  3.866974707  3.866975000     0.316719145  0.316719094  0.316719096


 
 k-points in units of 2pi/SCALE and weight: Automatic kpoint scheme                 
   0.00000000  0.00000000  0.00000000       0.000
   0.01571609 -0.00555647  0.00000000       0.001
   0.03143218 -0.01111295  0.00000000       0.001
   0.04714827 -0.01666942  0.00000000       0.001
   0.06286436 -0.02222589  0.00000000       0.001
   0.07858044 -0.02778237  0.00000000       0.001
   0.09429653 -0.03333884  0.00000000       0.001
   0.11001262 -0.03889532  0.00000000       0.001
   0.12572871 -0.04445179  0.00000000       0.001
   0.14144480 -0.05000826  0.00000000       0.001
   0.01571609  0.01111295  0.00000000       0.001
   0.03143218  0.00555648  0.00000000       0.003
   0.04714827  0.00000000  0.00000000       0.003
   0.06286436 -0.00555647  0.00000000       0.003
   0.07858044 -0.01111294  0.00000000       0.003
   0.09429653 -0.01666942  0.00000000       0.003
   0.11001262 -0.02222589  0.00000000       0.003
   0.12572871 -0.02778236  0.00000000       0.003
   0.14144480 -0.03333884  0.00000000       0.003
  -0.14144480  0.06667769  0.00000000       0.003
  -0.12572871  0.06112122  0.00000000       0.003
  -0.11001262  0.05556474  0.00000000       0.003
  -0.09429653  0.05000827  0.00000000       0.003
  -0.07858044  0.04445179  0.00000000       0.003
  -0.06286436  0.03889532  0.00000000       0.003
  -0.04714827  0.03333885  0.00000000       0.003
  -0.03143218  0.02778237  0.00000000       0.003
  -0.01571609  0.02222590  0.00000000       0.002
   0.03143218  0.02222590  0.00000000       0.001
   0.04714827  0.01666943  0.00000000       0.003
   0.06286436  0.01111296  0.00000000       0.003
   0.07858044  0.00555648  0.00000000       0.003
   0.09429653  0.00000001  0.00000000       0.003
   0.11001262 -0.00555646  0.00000000       0.003
   0.12572871 -0.01111294  0.00000000       0.003
   0.14144480 -0.01666941  0.00000000       0.003
  -0.14144480  0.08334712  0.00000000       0.003
  -0.12572871  0.07779064  0.00000000       0.003
  -0.11001262  0.07223417  0.00000000       0.003
  -0.09429653  0.06667769  0.00000000       0.003
  -0.07858044  0.06112122  0.00000000       0.003
  -0.06286436  0.05556475  0.00000000       0.003
  -0.04714827  0.05000827  0.00000000       0.003
  -0.03143218  0.04445180  0.00000000       0.002
   0.04714827  0.03333886  0.00000000       0.001
   0.06286436  0.02778238  0.00000000       0.003
   0.07858044  0.02222591  0.00000000       0.003
   0.09429653  0.01666944  0.00000000       0.003
   0.11001262  0.01111296  0.00000000       0.003
   0.12572871  0.00555649  0.00000000       0.003
   0.14144480  0.00000001  0.00000000       0.003
  -0.14144480  0.10001654  0.00000000       0.003
  -0.12572871  0.09446007  0.00000000       0.003
  -0.11001262  0.08890359  0.00000000       0.003
  -0.09429653  0.08334712  0.00000000       0.003
  -0.07858044  0.07779065  0.00000000       0.003
  -0.06286436  0.07223417  0.00000000       0.003
  -0.04714827  0.06667770  0.00000000       0.002
   0.06286436  0.04445181  0.00000000       0.001
   0.07858044  0.03889534  0.00000000       0.003
   0.09429653  0.03333886  0.00000000       0.003
   0.11001262  0.02778239  0.00000000       0.003
   0.12572871  0.02222591  0.00000000       0.003
   0.14144480  0.01666944  0.00000000       0.003
  -0.14144480  0.11668597  0.00000000       0.003
  -0.12572871  0.11112949  0.00000000       0.003
  -0.11001262  0.10557302  0.00000000       0.003
  -0.09429653  0.10001655  0.00000000       0.003
  -0.07858044  0.09446007  0.00000000       0.003
  -0.06286436  0.08890360  0.00000000       0.002
   0.07858044  0.05556476  0.00000000       0.001
   0.09429653  0.05000829  0.00000000       0.003
   0.11001262  0.04445181  0.00000000       0.003
   0.12572871  0.03889534  0.00000000       0.003
   0.14144480  0.03333887  0.00000000       0.003
  -0.14144480  0.13335539  0.00000000       0.003
  -0.12572871  0.12779892  0.00000000       0.003
  -0.11001262  0.12224245  0.00000000       0.003
  -0.09429653  0.11668597  0.00000000       0.003
  -0.07858044  0.11112950  0.00000000       0.002
   0.09429653  0.06667771  0.00000000       0.001
   0.11001262  0.06112124  0.00000000       0.003
   0.12572871  0.05556477  0.00000000       0.003
   0.14144480  0.05000829  0.00000000       0.003
  -0.14144480  0.15002482  0.00000000       0.003
  -0.12572871  0.14446835  0.00000000       0.003
  -0.11001262  0.13891187  0.00000000       0.003
  -0.09429653  0.13335540  0.00000000       0.002
   0.11001262  0.07779067  0.00000000       0.001
   0.12572871  0.07223419  0.00000000       0.003
   0.14144480  0.06667772  0.00000000       0.003
  -0.14144480  0.16669425  0.00000000       0.003
  -0.12572871  0.16113777  0.00000000       0.003
  -0.11001262  0.15558130  0.00000000       0.002
   0.12572871  0.08890362  0.00000000       0.001
   0.14144480  0.08334714  0.00000000       0.003
  -0.14144480  0.18336367  0.00000000       0.003
  -0.12572871  0.17780720  0.00000000       0.002
   0.14144480  0.10001657  0.00000000       0.001
  -0.14144480  0.20003310  0.00000000       0.002
   0.03929022  0.01111296  0.01361053       0.003
   0.05500631  0.00555648  0.01361053       0.007
   0.07072240  0.00000001  0.01361053       0.007
   0.08643849 -0.00555646  0.01361053       0.007
   0.10215458 -0.01111294  0.01361053       0.007
   0.11787067 -0.01666941  0.01361053       0.007
   0.13358676 -0.02222589  0.01361053       0.007
  -0.14930284  0.07779064  0.01361053       0.007
   0.05500631  0.02222591  0.01361053       0.003
   0.07072240  0.01666943  0.01361053       0.007
   0.08643849  0.01111296  0.01361053       0.007
   0.10215458  0.00555649  0.01361053       0.007
   0.11787067  0.00000001  0.01361053       0.007
   0.13358676 -0.00555646  0.01361053       0.007
  -0.14930284  0.09446007  0.01361053       0.007
  -0.13358675  0.08890359  0.01361053       0.007
  -0.11787067  0.08334712  0.01361053       0.007
  -0.10215458  0.07779065  0.01361053       0.007
  -0.08643849  0.07223417  0.01361053       0.007
  -0.07072240  0.06667770  0.01361053       0.007
  -0.05500631  0.06112122  0.01361053       0.007
  -0.03929022  0.05556475  0.01361053       0.003
   0.07072240  0.03333886  0.01361053       0.003
   0.08643849  0.02778239  0.01361053       0.007
   0.10215458  0.02222591  0.01361053       0.007
   0.11787067  0.01666944  0.01361053       0.007
   0.13358676  0.01111297  0.01361053       0.007
  -0.14930284  0.11112949  0.01361053       0.007
  -0.13358675  0.10557302  0.01361053       0.007
  -0.11787067  0.10001655  0.01361053       0.007
  -0.10215458  0.09446007  0.01361053       0.007
  -0.08643849  0.08890360  0.01361053       0.007
  -0.07072240  0.08334712  0.01361053       0.007
  -0.05500631  0.07779065  0.01361053       0.003
   0.08643849  0.04445181  0.01361053       0.003
   0.10215458  0.03889534  0.01361053       0.007
   0.11787067  0.03333887  0.01361053       0.007
   0.13358676  0.02778239  0.01361053       0.007
  -0.14930284  0.12779892  0.01361053       0.007
  -0.13358675  0.12224244  0.01361053       0.007
  -0.11787067  0.11668597  0.01361053       0.007
  -0.10215458  0.11112950  0.01361053       0.007
  -0.08643849  0.10557302  0.01361053       0.007
  -0.07072240  0.10001655  0.01361053       0.003
   0.10215458  0.05556477  0.01361053       0.003
   0.11787067  0.05000829  0.01361053       0.007
   0.13358676  0.04445182  0.01361053       0.007
  -0.14930284  0.14446834  0.01361053       0.007
  -0.13358675  0.13891187  0.01361053       0.007
  -0.11787067  0.13335540  0.01361053       0.007
  -0.10215458  0.12779892  0.01361053       0.007
  -0.08643849  0.12224245  0.01361053       0.003
   0.11787067  0.06667772  0.01361053       0.003
   0.13358676  0.06112124  0.01361053       0.007
  -0.14930284  0.16113777  0.01361053       0.007
  -0.13358675  0.15558130  0.01361053       0.007
  -0.11787067  0.15002482  0.01361053       0.007
  -0.10215458  0.14446835  0.01361053       0.003
   0.13358676  0.07779067  0.01361053       0.003
  -0.14930284  0.17780720  0.01361053       0.007
  -0.13358675  0.17225072  0.01361053       0.007
  -0.11787067  0.16669425  0.01361053       0.003
  -0.14930284  0.19447662  0.01361053       0.003
  -0.13358675  0.18892015  0.01361053       0.003
   0.07858045  0.02222591  0.02722106       0.003
   0.09429654  0.01666944  0.02722106       0.007
   0.11001263  0.01111297  0.02722106       0.007
   0.12572872  0.00555649  0.02722106       0.007
  -0.15716089  0.10557302  0.02722106       0.007
  -0.14144480  0.10001654  0.02722106       0.007
   0.09429654  0.03333886  0.02722106       0.003
   0.11001263  0.02778239  0.02722106       0.007
   0.12572872  0.02222592  0.02722106       0.007
  -0.15716089  0.12224244  0.02722106       0.007
  -0.14144480  0.11668597  0.02722106       0.007
  -0.12572871  0.11112950  0.02722106       0.007
  -0.11001262  0.10557302  0.02722106       0.007
  -0.09429653  0.10001655  0.02722106       0.007
  -0.07858044  0.09446008  0.02722106       0.007
  -0.06286435  0.08890360  0.02722106       0.003
   0.11001263  0.04445182  0.02722106       0.003
   0.12572872  0.03889534  0.02722106       0.007
  -0.15716089  0.13891187  0.02722106       0.007
  -0.14144480  0.13335540  0.02722106       0.007
  -0.12572871  0.12779892  0.02722106       0.007
  -0.11001262  0.12224245  0.02722106       0.007
  -0.09429653  0.11668598  0.02722106       0.007
  -0.07858044  0.11112950  0.02722106       0.003
   0.12572872  0.05556477  0.02722106       0.003
  -0.15716089  0.15558130  0.02722106       0.007
  -0.14144480  0.15002482  0.02722106       0.007
  -0.12572871  0.14446835  0.02722106       0.007
  -0.11001262  0.13891187  0.02722106       0.007
  -0.09429653  0.13335540  0.02722106       0.003
  -0.15716089  0.17225072  0.02722106       0.003
  -0.14144480  0.16669425  0.02722106       0.007
  -0.12572871  0.16113777  0.02722106       0.007
  -0.11001262  0.15558130  0.02722106       0.003
  -0.14144480  0.18336367  0.02722106       0.003
  -0.12572871  0.17780720  0.02722106       0.003
   0.11787067  0.03333887  0.04083159       0.003
  -0.16501893  0.13335539  0.04083159       0.007
  -0.14930284  0.12779892  0.04083159       0.007
  -0.13358675  0.12224245  0.04083159       0.007
  -0.16501893  0.15002482  0.04083159       0.003
  -0.14930284  0.14446835  0.04083159       0.007
  -0.13358675  0.13891187  0.04083159       0.007
  -0.11787066  0.13335540  0.04083159       0.007
  -0.10215457  0.12779893  0.04083159       0.007
  -0.08643848  0.12224245  0.04083159       0.003
  -0.14930284  0.16113777  0.04083159       0.003
  -0.13358675  0.15558130  0.04083159       0.007
  -0.11787066  0.15002483  0.04083159       0.007
  -0.10215457  0.14446835  0.04083159       0.003
  -0.13358675  0.17225073  0.04083159       0.003
  -0.11787066  0.16669425  0.04083159       0.003
  -0.14144479  0.15002482  0.05444212       0.003
  -0.12572870  0.14446835  0.05444212       0.007
  -0.12572870  0.16113778  0.05444212       0.003
  -0.11001261  0.15558130  0.05444212       0.003
 
 k-points in reciprocal lattice and weights: Automatic kpoint scheme                 
   0.00000000  0.00000000  0.00000000       0.000
   0.05263158  0.00000000  0.00000000       0.001
   0.10526316  0.00000000  0.00000000       0.001
   0.15789474  0.00000000  0.00000000       0.001
   0.21052632  0.00000000  0.00000000       0.001
   0.26315789  0.00000000  0.00000000       0.001
   0.31578947  0.00000000  0.00000000       0.001
   0.36842105  0.00000000  0.00000000       0.001
   0.42105263  0.00000000  0.00000000       0.001
   0.47368421  0.00000000  0.00000000       0.001
   0.05263158  0.05263158  0.00000000       0.001
   0.10526316  0.05263158  0.00000000       0.003
   0.15789474  0.05263158  0.00000000       0.003
   0.21052632  0.05263158  0.00000000       0.003
   0.26315789  0.05263158  0.00000000       0.003
   0.31578947  0.05263158  0.00000000       0.003
   0.36842105  0.05263158  0.00000000       0.003
   0.42105263  0.05263158  0.00000000       0.003
   0.47368421  0.05263158  0.00000000       0.003
  -0.47368421  0.05263158  0.00000000       0.003
  -0.42105263  0.05263158  0.00000000       0.003
  -0.36842105  0.05263158  0.00000000       0.003
  -0.31578947  0.05263158  0.00000000       0.003
  -0.26315789  0.05263158  0.00000000       0.003
  -0.21052632  0.05263158  0.00000000       0.003
  -0.15789474  0.05263158  0.00000000       0.003
  -0.10526316  0.05263158  0.00000000       0.003
  -0.05263158  0.05263158  0.00000000       0.002
   0.10526316  0.10526316  0.00000000       0.001
   0.15789474  0.10526316  0.00000000       0.003
   0.21052632  0.10526316  0.00000000       0.003
   0.26315789  0.10526316  0.00000000       0.003
   0.31578947  0.10526316  0.00000000       0.003
   0.36842105  0.10526316  0.00000000       0.003
   0.42105263  0.10526316  0.00000000       0.003
   0.47368421  0.10526316  0.00000000       0.003
  -0.47368421  0.10526316  0.00000000       0.003
  -0.42105263  0.10526316  0.00000000       0.003
  -0.36842105  0.10526316  0.00000000       0.003
  -0.31578947  0.10526316  0.00000000       0.003
  -0.26315789  0.10526316  0.00000000       0.003
  -0.21052632  0.10526316  0.00000000       0.003
  -0.15789474  0.10526316  0.00000000       0.003
  -0.10526316  0.10526316  0.00000000       0.002
   0.15789474  0.15789474  0.00000000       0.001
   0.21052632  0.15789474  0.00000000       0.003
   0.26315789  0.15789474  0.00000000       0.003
   0.31578947  0.15789474  0.00000000       0.003
   0.36842105  0.15789474  0.00000000       0.003
   0.42105263  0.15789474  0.00000000       0.003
   0.47368421  0.15789474  0.00000000       0.003
  -0.47368421  0.15789474  0.00000000       0.003
  -0.42105263  0.15789474  0.00000000       0.003
  -0.36842105  0.15789474  0.00000000       0.003
  -0.31578947  0.15789474  0.00000000       0.003
  -0.26315789  0.15789474  0.00000000       0.003
  -0.21052632  0.15789474  0.00000000       0.003
  -0.15789474  0.15789474  0.00000000       0.002
   0.21052632  0.21052632  0.00000000       0.001
   0.26315789  0.21052632  0.00000000       0.003
   0.31578947  0.21052632  0.00000000       0.003
   0.36842105  0.21052632  0.00000000       0.003
   0.42105263  0.21052632  0.00000000       0.003
   0.47368421  0.21052632  0.00000000       0.003
  -0.47368421  0.21052632  0.00000000       0.003
  -0.42105263  0.21052632  0.00000000       0.003
  -0.36842105  0.21052632  0.00000000       0.003
  -0.31578947  0.21052632  0.00000000       0.003
  -0.26315789  0.21052632  0.00000000       0.003
  -0.21052632  0.21052632  0.00000000       0.002
   0.26315789  0.26315789  0.00000000       0.001
   0.31578947  0.26315789  0.00000000       0.003
   0.36842105  0.26315789  0.00000000       0.003
   0.42105263  0.26315789  0.00000000       0.003
   0.47368421  0.26315789  0.00000000       0.003
  -0.47368421  0.26315789  0.00000000       0.003
  -0.42105263  0.26315789  0.00000000       0.003
  -0.36842105  0.26315789  0.00000000       0.003
  -0.31578947  0.26315789  0.00000000       0.003
  -0.26315789  0.26315789  0.00000000       0.002
   0.31578947  0.31578947  0.00000000       0.001
   0.36842105  0.31578947  0.00000000       0.003
   0.42105263  0.31578947  0.00000000       0.003
   0.47368421  0.31578947  0.00000000       0.003
  -0.47368421  0.31578947  0.00000000       0.003
  -0.42105263  0.31578947  0.00000000       0.003
  -0.36842105  0.31578947  0.00000000       0.003
  -0.31578947  0.31578947  0.00000000       0.002
   0.36842105  0.36842105  0.00000000       0.001
   0.42105263  0.36842105  0.00000000       0.003
   0.47368421  0.36842105  0.00000000       0.003
  -0.47368421  0.36842105  0.00000000       0.003
  -0.42105263  0.36842105  0.00000000       0.003
  -0.36842105  0.36842105  0.00000000       0.002
   0.42105263  0.42105263  0.00000000       0.001
   0.47368421  0.42105263  0.00000000       0.003
  -0.47368421  0.42105263  0.00000000       0.003
  -0.42105263  0.42105263  0.00000000       0.002
   0.47368421  0.47368421  0.00000000       0.001
  -0.47368421  0.47368421  0.00000000       0.002
   0.15789474  0.10526316  0.05263158       0.003
   0.21052632  0.10526316  0.05263158       0.007
   0.26315789  0.10526316  0.05263158       0.007
   0.31578947  0.10526316  0.05263158       0.007
   0.36842105  0.10526316  0.05263158       0.007
   0.42105263  0.10526316  0.05263158       0.007
   0.47368421  0.10526316  0.05263158       0.007
  -0.47368421  0.10526316  0.05263158       0.007
   0.21052632  0.15789474  0.05263158       0.003
   0.26315789  0.15789474  0.05263158       0.007
   0.31578947  0.15789474  0.05263158       0.007
   0.36842105  0.15789474  0.05263158       0.007
   0.42105263  0.15789474  0.05263158       0.007
   0.47368421  0.15789474  0.05263158       0.007
  -0.47368421  0.15789474  0.05263158       0.007
  -0.42105263  0.15789474  0.05263158       0.007
  -0.36842105  0.15789474  0.05263158       0.007
  -0.31578947  0.15789474  0.05263158       0.007
  -0.26315789  0.15789474  0.05263158       0.007
  -0.21052632  0.15789474  0.05263158       0.007
  -0.15789474  0.15789474  0.05263158       0.007
  -0.10526316  0.15789474  0.05263158       0.003
   0.26315789  0.21052632  0.05263158       0.003
   0.31578947  0.21052632  0.05263158       0.007
   0.36842105  0.21052632  0.05263158       0.007
   0.42105263  0.21052632  0.05263158       0.007
   0.47368421  0.21052632  0.05263158       0.007
  -0.47368421  0.21052632  0.05263158       0.007
  -0.42105263  0.21052632  0.05263158       0.007
  -0.36842105  0.21052632  0.05263158       0.007
  -0.31578947  0.21052632  0.05263158       0.007
  -0.26315789  0.21052632  0.05263158       0.007
  -0.21052632  0.21052632  0.05263158       0.007
  -0.15789474  0.21052632  0.05263158       0.003
   0.31578947  0.26315789  0.05263158       0.003
   0.36842105  0.26315789  0.05263158       0.007
   0.42105263  0.26315789  0.05263158       0.007
   0.47368421  0.26315789  0.05263158       0.007
  -0.47368421  0.26315789  0.05263158       0.007
  -0.42105263  0.26315789  0.05263158       0.007
  -0.36842105  0.26315789  0.05263158       0.007
  -0.31578947  0.26315789  0.05263158       0.007
  -0.26315789  0.26315789  0.05263158       0.007
  -0.21052632  0.26315789  0.05263158       0.003
   0.36842105  0.31578947  0.05263158       0.003
   0.42105263  0.31578947  0.05263158       0.007
   0.47368421  0.31578947  0.05263158       0.007
  -0.47368421  0.31578947  0.05263158       0.007
  -0.42105263  0.31578947  0.05263158       0.007
  -0.36842105  0.31578947  0.05263158       0.007
  -0.31578947  0.31578947  0.05263158       0.007
  -0.26315789  0.31578947  0.05263158       0.003
   0.42105263  0.36842105  0.05263158       0.003
   0.47368421  0.36842105  0.05263158       0.007
  -0.47368421  0.36842105  0.05263158       0.007
  -0.42105263  0.36842105  0.05263158       0.007
  -0.36842105  0.36842105  0.05263158       0.007
  -0.31578947  0.36842105  0.05263158       0.003
   0.47368421  0.42105263  0.05263158       0.003
  -0.47368421  0.42105263  0.05263158       0.007
  -0.42105263  0.42105263  0.05263158       0.007
  -0.36842105  0.42105263  0.05263158       0.003
  -0.47368421  0.47368421  0.05263158       0.003
  -0.42105263  0.47368421  0.05263158       0.003
   0.31578947  0.21052632  0.10526316       0.003
   0.36842105  0.21052632  0.10526316       0.007
   0.42105263  0.21052632  0.10526316       0.007
   0.47368421  0.21052632  0.10526316       0.007
  -0.47368421  0.21052632  0.10526316       0.007
  -0.42105263  0.21052632  0.10526316       0.007
   0.36842105  0.26315789  0.10526316       0.003
   0.42105263  0.26315789  0.10526316       0.007
   0.47368421  0.26315789  0.10526316       0.007
  -0.47368421  0.26315789  0.10526316       0.007
  -0.42105263  0.26315789  0.10526316       0.007
  -0.36842105  0.26315789  0.10526316       0.007
  -0.31578947  0.26315789  0.10526316       0.007
  -0.26315789  0.26315789  0.10526316       0.007
  -0.21052632  0.26315789  0.10526316       0.007
  -0.15789474  0.26315789  0.10526316       0.003
   0.42105263  0.31578947  0.10526316       0.003
   0.47368421  0.31578947  0.10526316       0.007
  -0.47368421  0.31578947  0.10526316       0.007
  -0.42105263  0.31578947  0.10526316       0.007
  -0.36842105  0.31578947  0.10526316       0.007
  -0.31578947  0.31578947  0.10526316       0.007
  -0.26315789  0.31578947  0.10526316       0.007
  -0.21052632  0.31578947  0.10526316       0.003
   0.47368421  0.36842105  0.10526316       0.003
  -0.47368421  0.36842105  0.10526316       0.007
  -0.42105263  0.36842105  0.10526316       0.007
  -0.36842105  0.36842105  0.10526316       0.007
  -0.31578947  0.36842105  0.10526316       0.007
  -0.26315789  0.36842105  0.10526316       0.003
  -0.47368421  0.42105263  0.10526316       0.003
  -0.42105263  0.42105263  0.10526316       0.007
  -0.36842105  0.42105263  0.10526316       0.007
  -0.31578947  0.42105263  0.10526316       0.003
  -0.42105263  0.47368421  0.10526316       0.003
  -0.36842105  0.47368421  0.10526316       0.003
   0.47368421  0.31578947  0.15789474       0.003
  -0.47368421  0.31578947  0.15789474       0.007
  -0.42105263  0.31578947  0.15789474       0.007
  -0.36842105  0.31578947  0.15789474       0.007
  -0.47368421  0.36842105  0.15789474       0.003
  -0.42105263  0.36842105  0.15789474       0.007
  -0.36842105  0.36842105  0.15789474       0.007
  -0.31578947  0.36842105  0.15789474       0.007
  -0.26315789  0.36842105  0.15789474       0.007
  -0.21052632  0.36842105  0.15789474       0.003
  -0.42105263  0.42105263  0.15789474       0.003
  -0.36842105  0.42105263  0.15789474       0.007
  -0.31578947  0.42105263  0.15789474       0.007
  -0.26315789  0.42105263  0.15789474       0.003
  -0.36842105  0.47368421  0.15789474       0.003
  -0.31578947  0.47368421  0.15789474       0.003
  -0.36842105  0.42105263  0.21052632       0.003
  -0.31578947  0.42105263  0.21052632       0.007
  -0.31578947  0.47368421  0.21052632       0.003
  -0.26315789  0.47368421  0.21052632       0.003
 
 position of ions in fractional coordinates (direct lattice) 
   0.87500000  0.87500000  0.87500000
   0.12500000  0.12500000  0.12500000
 
 position of ions in cartesian coordinates  (Angst):
   3.90704738  2.76270050  6.76720537
   0.55814962  0.39467150  0.96674362
 


--------------------------------------------------------------------------------------------------------


 k-point  1 :   0.0000 0.0000 0.0000  plane waves:    1243
 k-point  2 :   0.0526 0.0000 0.0000  plane waves:    1239
 k-point  3 :   0.1053 0.0000 0.0000  plane waves:    1218
 k-point  4 :   0.1579 0.0000 0.0000  plane waves:    1209
 k-point  5 :   0.2105 0.0000 0.0000  plane waves:    1215
 k-point  6 :   0.2632 0.0000 0.0000  plane waves:    1203
 k-point  7 :   0.3158 0.0000 0.0000  plane waves:    1206
 k-point  8 :   0.3684 0.0000 0.0000  plane waves:    1188
 k-point  9 :   0.4211 0.0000 0.0000  plane waves:    1185
 k-point 10 :   0.4737 0.0000 0.0000  plane waves:    1194
 k-point 11 :   0.0526 0.0526 0.0000  plane waves:    1239
 k-point 12 :   0.1053 0.0526 0.0000  plane waves:    1217
 k-point 13 :   0.1579 0.0526 0.0000  plane waves:    1209
 k-point 14 :   0.2105 0.0526 0.0000  plane waves:    1204
 k-point 15 :   0.2632 0.0526 0.0000  plane waves:    1201
 k-point 16 :   0.3158 0.0526 0.0000  plane waves:    1202
 k-point 17 :   0.3684 0.0526 0.0000  plane waves:    1195
 k-point 18 :   0.4211 0.0526 0.0000  plane waves:    1191
 k-point 19 :   0.4737 0.0526 0.0000  plane waves:    1192
 k-point 20 :  -0.4737 0.0526 0.0000  plane waves:    1191
 k-point 21 :  -0.4211 0.0526 0.0000  plane waves:    1189
 k-point 22 :  -0.3684 0.0526 0.0000  plane waves:    1198
 k-point 23 :  -0.3158 0.0526 0.0000  plane waves:    1197
 k-point 24 :  -0.2632 0.0526 0.0000  plane waves:    1203
[...]

 k-point 185 :      -0.3684    0.3158    0.1053
  band No.  band energies     occupation 
      1      -3.0147      2.00000
      2      -1.1077      2.00000
      3       1.7359      2.00000
      4       3.1520      2.00000
      5       8.0744      0.00000
      6      10.0478      0.00000
      7      11.3704      0.00000
      8      12.6561      0.00000

 k-point 186 :      -0.3158    0.3158    0.1053
  band No.  band energies     occupation 
      1      -3.1409      2.00000
      2      -0.9529      2.00000
      3       1.6571      2.00000
      4       3.2814      2.00000
      5       8.2553      0.00000
      6       9.9150      0.00000
      7      11.7741      0.00000
      8      12.4280      0.00000

 k-point 187 :      -0.2632    0.3158    0.1053
  band No.  band energies     occupation 
      1      -3.4738      2.00000
      2      -0.5453      2.00000
      3       1.6942      2.00000
      4       3.4734      2.00000
      5       8.4847      0.00000
      6       9.7640      0.00000
      7      10.9413      0.00000
      8      12.4682      0.00000

 k-point 188 :      -0.2105    0.3158    0.1053
  band No.  band energies     occupation 
      1      -3.8603      2.00000
      2      -0.0785      2.00000
      3       1.8914      2.00000
      4       3.7094      2.00000
      5       8.7479      0.00000
      6       9.4455      0.00000
      7      10.4017      0.00000
      8      12.1226      0.00000

 k-point 189 :       0.4737    0.3684    0.1053
  band No.  band energies     occupation 
      1      -3.7405      2.00000
      2      -0.1185      2.00000
      3       2.5352      2.00000
      4       3.0033      2.00000
      5       7.2953      0.00000
      6       8.0844      0.00000
      7      11.6820      0.00000
      8      13.3954      0.00000

 k-point 190 :      -0.4737    0.3684    0.1053
  band No.  band energies     occupation 
      1      -3.3544      2.00000
      2      -0.5845      2.00000
      3       2.2022      2.00000
      4       2.8490      2.00000
      5       7.5569      0.00000
      6       8.4563      0.00000
      7      11.4743      0.00000
      8      13.7131      0.00000

 k-point 191 :      -0.4211    0.3684    0.1053
  band No.  band energies     occupation 
      1      -2.9743      2.00000
      2      -1.0102      2.00000
      3       1.8653      2.00000
      4       2.8160      2.00000
      5       7.6747      0.00000
      6       9.2100      0.00000
      7      11.2711      0.00000
      8      13.7398      0.00000

 k-point 192 :      -0.3684    0.3684    0.1053
  band No.  band energies     occupation 
      1      -2.7188      2.00000
      2      -1.2778      2.00000
      3       1.5982      2.00000
      4       2.8789      2.00000
      5       7.8023      0.00000
      6      10.1124      0.00000
      7      11.1156      0.00000
      8      12.9278      0.00000

 k-point 193 :      -0.3158    0.3684    0.1053
  band No.  band energies     occupation 
      1      -2.7822      2.00000
      2      -1.2038      2.00000
      3       1.4507      2.00000
      4       3.0192      2.00000
      5       7.9805      0.00000
      6      10.7026      0.00000
      7      11.3634      0.00000
      8      11.9411      0.00000

 k-point 194 :      -0.2632    0.3684    0.1053
  band No.  band energies     occupation 
      1      -3.0951      2.00000
      2      -0.8855      2.00000
      3       1.4680      2.00000
      4       3.2229      2.00000
      5       8.2119      0.00000
      6      10.4569      0.00000
      7      11.1584      0.00000
      8      12.4170      0.00000

 k-point 195 :      -0.4737    0.4211    0.1053
  band No.  band energies     occupation 
      1      -3.1004      2.00000
      2      -0.8910      2.00000
      3       2.4091      2.00000
      4       2.6782      2.00000
      5       7.2270      0.00000
      6       7.6853      0.00000
      7      12.5272      0.00000
      8      14.4000      0.00000

 k-point 196 :      -0.4211    0.4211    0.1053
  band No.  band energies     occupation 
      1      -2.7084      2.00000
      2      -1.2901      2.00000
      3       2.0699      2.00000
      4       2.5965      2.00000
      5       7.4597      0.00000
      6       8.2145      0.00000
      7      12.3184      0.00000
      8      14.1594      0.00000

 k-point 197 :      -0.3684    0.4211    0.1053
  band No.  band energies     occupation 
      1      -2.4025      2.00000
      2      -1.5757      2.00000
      3       1.7160      2.00000
      4       2.6620      2.00000
      5       7.5839      0.00000
      6       9.0845      0.00000
      7      12.1147      0.00000
      8      13.0696      0.00000

 k-point 198 :      -0.3158    0.4211    0.1053
  band No.  band energies     occupation 
      1      -2.4628      2.00000
      2      -1.4966      2.00000
      3       1.4851      2.00000
      4       2.8081      2.00000
      5       7.7537      0.00000
      6      10.0716      0.00000
      7      11.8149      0.00000
      8      12.1506      0.00000

 k-point 199 :      -0.4211    0.4737    0.1053
  band No.  band energies     occupation 
      1      -2.4018      2.00000
      2      -1.6592      2.00000
      3       2.3865      2.00000
      4       2.4741      2.00000
      5       7.2636      0.00000
      6       7.4137      0.00000
      7      13.4260      0.00000
      8      14.3521      0.00000

 k-point 200 :      -0.3684    0.4737    0.1053
  band No.  band energies     occupation 
      1      -2.1129      2.00000
      2      -1.9064      2.00000
      3       2.0257      2.00000
      4       2.5116      2.00000
      5       7.4283      0.00000
      6       8.1326      0.00000
      7      13.1621      0.00000
      8      13.2949      0.00000

 k-point 201 :       0.4737    0.3158    0.1579
  band No.  band energies     occupation 
      1      -4.1192      2.00000
      2       0.3027      2.00000
      3       2.3007      2.00000
      4       3.5671      2.00000
      5       8.3839      0.00000
      6       9.3995      0.00000
      7       9.7914      0.00000
      8      12.2641      0.00000

 k-point 202 :      -0.4737    0.3158    0.1579
  band No.  band energies     occupation 
      1      -3.7354      2.00000
      2      -0.2094      2.00000
      3       2.0262      2.00000
      4       3.3426      2.00000
      5       8.6773      0.00000
      6       9.4933      0.00000
      7       9.8669      0.00000
      8      12.5967      0.00000

 k-point 203 :      -0.4211    0.3158    0.1579
  band No.  band energies     occupation 
      1      -3.3564      2.00000
      2      -0.7027      2.00000
      3       1.8730      2.00000
      4       3.1685      2.00000
      5       8.8078      0.00000
      6       9.2870      0.00000
      7      10.6124      0.00000
      8      12.7138      0.00000

 k-point 204 :      -0.3684    0.3158    0.1579
  band No.  band energies     occupation 
      1      -3.0830      2.00000
      2      -1.0422      2.00000
      3       1.8065      2.00000
      4       3.0741      2.00000
      5       8.9137      0.00000
      6       9.1066      0.00000
      7      11.5342      0.00000
      8      12.6485      0.00000

 k-point 205 :      -0.4737    0.3684    0.1579
  band No.  band energies     occupation 
      1      -3.5723      2.00000
      2      -0.3255      2.00000
      3       2.1035      2.00000
      4       2.9966      2.00000
      5       8.2275      0.00000
      6       8.9149      0.00000
      7      10.4723      0.00000
      8      13.3445      0.00000

 k-point 206 :      -0.4211    0.3684    0.1579
  band No.  band energies     occupation 
      1      -3.1838      2.00000
      2      -0.7632      2.00000
      3       1.8622      2.00000
      4       2.7980      2.00000
      5       8.5097      0.00000
      6       9.4208      0.00000
      7      10.2706      0.00000
      8      13.6835      0.00000

 k-point 207 :      -0.3684    0.3684    0.1579
  band No.  band energies     occupation 
      1      -2.8537      2.00000
      2      -1.1254      2.00000
      3       1.6908      2.00000
      4       2.7081      2.00000
      5       8.6422      0.00000
      6       9.8826      0.00000
      7      10.4723      0.00000
      8      12.7202      0.00000

 k-point 208 :      -0.3158    0.3684    0.1579
  band No.  band energies     occupation 
      1      -2.7585      2.00000
      2      -1.2255      2.00000
      3       1.5947      2.00000
      4       2.7353      2.00000
      5       8.7941      0.00000
      6       9.7774      0.00000
      7      11.3081      0.00000
      8      11.7592      0.00000

 k-point 209 :      -0.2632    0.3684    0.1579
  band No.  band energies     occupation 
      1      -2.9843      2.00000
      2      -0.9811      2.00000
      3       1.5965      2.00000
      4       2.8664      2.00000
      5       8.9909      0.00000
      6       9.6224      0.00000
      7      10.6508      0.00000
      8      12.5517      0.00000

 k-point 210 :      -0.2105    0.3684    0.1579
  band No.  band energies     occupation 
      1      -3.3517      2.00000
      2      -0.5919      2.00000
      3       1.7305      2.00000
      4       3.0789      2.00000
      5       9.2281      0.00000
      6       9.3025      0.00000
      7      10.0187      0.00000
      8      13.2642      0.00000

 k-point 211 :      -0.4211    0.4211    0.1579
  band No.  band energies     occupation 
      1      -2.9670      2.00000
      2      -0.9777      2.00000
      3       2.0176      2.00000
      4       2.5406      2.00000
      5       8.1568      0.00000
      6       8.5539      0.00000
      7      11.2434      0.00000
      8      13.9862      0.00000

 k-point 212 :      -0.3684    0.4211    0.1579
  band No.  band energies     occupation 
      1      -2.5985      2.00000
      2      -1.3370      2.00000
      3       1.7977      2.00000
      4       2.4081      2.00000
      5       8.4067      0.00000
      6       9.2285      0.00000
      7      11.0341      0.00000
      8      12.8477      0.00000

 k-point 213 :      -0.3158    0.4211    0.1579
  band No.  band energies     occupation 
      1      -2.4224      2.00000
      2      -1.4996      2.00000
      3       1.5957      2.00000
      4       2.4551      2.00000
      5       8.5570      0.00000
      6      10.1161      0.00000
      7      10.9078      0.00000
      8      11.7673      0.00000

 k-point 214 :      -0.2632    0.4211    0.1579
  band No.  band energies     occupation 
      1      -2.6259      2.00000
      2      -1.2976      2.00000
      3       1.5097      2.00000
      4       2.6191      2.00000
      5       8.7517      0.00000
      6      10.3473      0.00000
      7      10.8786      0.00000
      8      11.4718      0.00000

 k-point 215 :      -0.3684    0.4737    0.1579
  band No.  band energies     occupation 
      1      -2.3188      2.00000
      2      -1.6482      2.00000
      3       2.0543      2.00000
      4       2.2256      2.00000
      5       8.1820      0.00000
      6       8.3119      0.00000
      7      12.0960      0.00000
      8      13.0206      0.00000

 k-point 216 :      -0.3158    0.4737    0.1579
  band No.  band energies     occupation 
      1      -2.1234      2.00000
      2      -1.8061      2.00000
      3       1.7944      2.00000
      4       2.2556      2.00000
      5       8.3722      0.00000
      6       9.1619      0.00000
      7      11.8457      0.00000
      8      11.9569      0.00000

 k-point 217 :      -0.3684    0.4211    0.2105
  band No.  band energies     occupation 
      1      -2.8016      2.00000
      2      -1.1166      2.00000
      3       1.6988      2.00000
      4       2.5162      2.00000
      5       9.2333      0.00000
      6       9.4851      0.00000
      7      10.1169      0.00000
      8      12.6759      0.00000

 k-point 218 :      -0.3158    0.4211    0.2105
  band No.  band energies     occupation 
      1      -2.4932      2.00000
      2      -1.4126      2.00000
      3       1.6304      2.00000
      4       2.3542      2.00000
      5       9.4199      0.00000
      6       9.7339      0.00000
      7      10.5049      0.00000
      8      11.5808      0.00000

 k-point 219 :      -0.3158    0.4737    0.2105
  band No.  band energies     occupation 
      1      -2.2314      2.00000
      2      -1.6640      2.00000
      3       1.8127      2.00000
      4       2.0852      2.00000
      5       9.2473      0.00000
      6       9.3461      0.00000
      7      10.8343      0.00000
      8      11.7100      0.00000

 k-point 220 :      -0.2632    0.4737    0.2105
  band No.  band energies     occupation 
      1      -2.1617      2.00000
      2      -1.7186      2.00000
      3       1.7186      2.00000
      4       2.0968      2.00000
      5       9.4320      0.00000
      6      10.0868      0.00000
      7      10.7209      0.00000
      8      10.8066      0.00000


--------------------------------------------------------------------------------------------------------


 soft charge-density along one line, spin component           1
         0         1         2         3         4         5         6         7         8         9
 total charge-density along one line
 
 pseudopotential strength for first ion, spin component:           1
 18.530  25.848   0.000   0.000   0.000   0.000   0.000   0.000
 25.848  36.061   0.000   0.000   0.000   0.000   0.000   0.000
  0.000   0.000   4.199   0.000   0.000   7.816   0.000   0.000
  0.000   0.000   0.000   4.199   0.000   0.000   7.816   0.000
  0.000   0.000   0.000   0.000   4.199   0.000   0.000   7.816
  0.000   0.000   7.816   0.000   0.000  14.561   0.000   0.000
  0.000   0.000   0.000   7.816   0.000   0.000  14.561   0.000
  0.000   0.000   0.000   0.000   7.816   0.000   0.000  14.561
 total augmentation occupancy for first ion, spin component:           1
  3.252  -0.964   0.000   0.000   0.000   0.000   0.000   0.000
 -0.964   0.490   0.000   0.000   0.000   0.000   0.000   0.000
  0.000   0.000   2.261   0.000   0.000  -0.407   0.000   0.000
  0.000   0.000   0.000   2.261   0.000   0.000  -0.407   0.000
  0.000   0.000   0.000   0.000   2.261   0.000   0.000  -0.407
  0.000   0.000  -0.407   0.000   0.000   0.084   0.000   0.000
  0.000   0.000   0.000  -0.407   0.000   0.000   0.084   0.000
  0.000   0.000   0.000   0.000  -0.407   0.000   0.000   0.084


------------------------ aborting loop because EDIFF is reached ----------------------------------------


    CHARGE:  cpu time    0.08: real time    0.12
    FORLOC:  cpu time    0.00: real time    0.00
    FORNL :  cpu time    0.12: real time    0.12
    STRESS:  cpu time    0.59: real time    0.59
    FORCOR:  cpu time    1.49: real time    1.49
    FORHAR:  cpu time    0.01: real time    0.01
    MIXING:  cpu time    0.00: real time    0.00

  FORCE on cell =-STRESS in cart. coord.  units (eV):
  Direction    XX          YY          ZZ          XY          YZ          ZX
  --------------------------------------------------------------------------------------
  Alpha Z     3.29318     3.29318     3.29318
  Ewald     -75.64832   -75.64835   -75.64832    -0.00001     0.00001     0.00001
  Hartree     5.12415     5.12415     5.12415     0.00000     0.00000     0.00000
  E(xc)     -25.38040   -25.38040   -25.38040     0.00000     0.00000     0.00000
  Local     -29.55365   -29.55365   -29.55366     0.00001     0.00000     0.00000
  n-local    74.22459    77.59800    81.76235    -0.88514    -0.98721    -0.01357
  augment   -11.98055   -11.98055   -11.98056     0.00000     0.00000     0.00000
  Kinetic    53.35006    55.40459    61.03728     0.84940     1.25034    -0.58197
  Fock        0.00000     0.00000     0.00000     0.00000     0.00000     0.00000
  -------------------------------------------------------------------------------------
  Total       0.31335     0.31335     0.31335     0.00000     0.00000     0.00000
  in kB      12.27839    12.27840    12.27840     0.00000     0.00000     0.00000
  external pressure =       12.28 kB  Pullay stress =        0.00 kB


 VOLUME and BASIS-vectors are now :
 -----------------------------------------------------------------------------
  energy-cutoff  :      550.00
  volume of cell :       40.89
      direct lattice vectors                 reciprocal lattice vectors
     3.348898000  0.000000000  1.933487000     0.298605691 -0.105573000  0.000000000
     1.116299000  3.157372000  1.933487000     0.000000000  0.316719094  0.000000000
     0.000000000  0.000000000  3.866975000    -0.149302807 -0.105573020  0.258600069

  length of vectors
     3.866974243  3.866974707  3.866975000     0.316719145  0.316719094  0.316719096


 FORCES acting on ions
    electron-ion (+dipol)            ewald-force                    non-local-force                 convergence-correction
 -----------------------------------------------------------------------------------------------
   -.378E-05 0.692E-05 0.844E-05   0.634E-05 -.116E-04 -.142E-04   -.625E-16 -.833E-16 -.486E-16   0.139E-11 0.280E-11 0.525E-11
   0.378E-05 -.692E-05 -.844E-05   -.634E-05 0.116E-04 0.142E-04   0.902E-16 0.833E-16 0.146E-15   -.139E-11 -.280E-11 -.525E-11
 -----------------------------------------------------------------------------------------------
   0.181E-12 -.587E-13 -.182E-13   -.469E-16 0.276E-16 -.294E-16   0.278E-16 0.000E+00 0.971E-16   0.402E-15 -.446E-16 -.181E-14
 
 
 POSITION                                       TOTAL-FORCE (eV/Angst)
 -----------------------------------------------------------------------------------
      3.90705      2.76270      6.76721         0.000000      0.000000      0.000000
      0.55815      0.39467      0.96674         0.000000      0.000000      0.000000
 -----------------------------------------------------------------------------------
    total drift:                                0.000000      0.000000      0.000000


--------------------------------------------------------------------------------------------------------



  FREE ENERGIE OF THE ION-ELECTRON SYSTEM (eV)
  ---------------------------------------------------
  free  energy   TOTEN  =        -8.34036552 eV

  energy  without entropy=       -8.34033847  energy(sigma->0) =       -8.34035200
 


--------------------------------------------------------------------------------------------------------


    POTLOK:  cpu time    1.50: real time    1.51


--------------------------------------------------------------------------------------------------------




--------------------------------------------------------------------------------------------------------


  
 reached required accuracy - stopping structural energy minimisation
     LOOP+:  cpu time   52.55: real time   62.50
    4ORBIT:  cpu time    0.00: real time    0.00

 total amount of memory used by VASP on root node    38525. kBytes
========================================================================

   base      :      30000. kBytes
   nonl-proj :       4515. kBytes
   fftplans  :        700. kBytes
   grid      :        998. kBytes
   one-center:          3. kBytes
   wavefun   :       2309. kBytes
 
  
  
 General timing and accounting informations for this job:
 ========================================================
  
                  Total CPU time used (sec):       53.807
                            User time (sec):       53.663
                          System time (sec):        0.144
                         Elapsed time (sec):       67.172
  
                   Maximum memory used (kb):      111212.
                   Average memory used (kb):           0.
  
                          Minor page faults:        28822
                          Major page faults:            5
                 Voluntary context switches:         1057
