 running on   16 total cores
 distrk:  each k-point on   16 cores,    1 groups
 distr:  one band on    4 cores,    4 groups
 using from now: INCAR     
 vasp.5.3.3 18Dez12 (build Jan 30 2013 10:57:47) complex                        
  
 POSCAR found type information on POSCAR  Si
 POSCAR found :  1 types and       2 ions

 ----------------------------------------------------------------------------- 
|                                                                             |
|  ADVICE TO THIS USER RUNNING 'VASP/VAMP'   (HEAR YOUR MASTER'S VOICE ...):  |
|                                                                             |
|      You have switched on vdW-DFT.                                          |
|      This routine was written and supplied by Jiri Klimes.                  |
|      We recommed that you carefully read and cite the following             |
|      publication                                                            |
|      J. Klimes, D.R. Bowler, A. Michelides                                  |
|        J. Phys.: Cond Matt. 22 022201 (2010)                                |
|      J. Klimes, D.R. Bowler, A. Michelides                                  |
|        Phys. Rev. B. 83, 195131 (2011)                                      |
|      and references therein.                                                |
|                                                                             |
 ----------------------------------------------------------------------------- 


 ----------------------------------------------------------------------------- 
|                                                                             |
|  ADVICE TO THIS USER RUNNING 'VASP/VAMP'   (HEAR YOUR MASTER'S VOICE ...):  |
|                                                                             |
|      You enforced a specific xc-type in the INCAR file,                     |
|      a different type was found on the POTCAR file                          |
|          I HOPE YOU KNOW, WHAT YOU ARE  DOING                               |
|                                                                             |
 ----------------------------------------------------------------------------- 

 LDA part: xc-table for Pade appr. of Perdew
 POSCAR, INCAR and KPOINTS ok, starting setup
 FFT: planning ...
 WAVECAR not read
 entering main loop
       N       E                     dE             d eps       ncg     rms          rms(c)
Total vdW correction in eV:      1.0792472
DAV:   1     0.882141455246E+01    0.88214E+01   -0.33919E+03  3528   0.842E+02
DAV:   2    -0.818083012304E+01   -0.17002E+02   -0.16369E+02  5352   0.800E+01
DAV:   3    -0.841378787157E+01   -0.23296E+00   -0.23296E+00  4784   0.119E+01
DAV:   4    -0.841478216910E+01   -0.99430E-03   -0.99430E-03  5432   0.832E-01
DAV:   5    -0.841478369009E+01   -0.15210E-05   -0.15200E-05  4872   0.265E-02    0.374E+00
Total vdW correction in eV:      1.1274134
DAV:   6    -0.836150470685E+01    0.53279E-01   -0.88842E-02  4256   0.176E+00    0.229E+00
Total vdW correction in eV:      1.2189891
DAV:   7    -0.835619463292E+01    0.53101E-02   -0.20251E-01  4672   0.263E+00    0.186E-01
Total vdW correction in eV:      1.2141452
DAV:   8    -0.833944014030E+01    0.16754E-01   -0.61479E-03  4376   0.543E-01    0.981E-02
Total vdW correction in eV:      1.2196318
DAV:   9    -0.834109203620E+01   -0.16519E-02   -0.58790E-04  5064   0.162E-01    0.729E-02
Total vdW correction in eV:      1.2197145
DAV:  10    -0.834040415525E+01    0.68788E-03   -0.39061E-05  4584   0.536E-02    0.300E-02
Total vdW correction in eV:      1.2197186
DAV:  11    -0.834037070690E+01    0.33448E-04   -0.83398E-07  5128   0.836E-03    0.313E-03
Total vdW correction in eV:      1.2197481
DAV:  12    -0.834036922136E+01    0.14855E-05   -0.68880E-08  4504   0.260E-03    0.101E-03
Total vdW correction in eV:      1.2197506
DAV:  13    -0.834036590845E+01    0.33129E-05   -0.23405E-09  2520   0.455E-04    0.472E-05
Total vdW correction in eV:      1.2197516
DAV:  14    -0.834036570797E+01    0.20048E-06   -0.23295E-10  2264   0.165E-04    0.233E-05
Total vdW correction in eV:      1.2197513
DAV:  15    -0.834036547624E+01    0.23172E-06   -0.22183E-11  2176   0.433E-05    0.930E-06
Total vdW correction in eV:      1.2197514
DAV:  16    -0.834036552203E+01   -0.45785E-07   -0.48192E-12  2024   0.194E-05
Total vdW correction in eV:      1.2197513
Total vdW correction in eV:      1.2197513
   1 F= -.83403655E+01 E0= -.83403520E+01  d E =-.834037E+01
 curvature:   0.00 expect dE= 0.000E+00 dE for cont linesearch  0.000E+00
 trial: gam= 0.00000 g(F)=  0.622E-43 g(S)=  0.000E+00 ort = 0.000E+00 (trialstep = 0.100E+01)
 search vector abs. value=  0.100E-09
 reached required accuracy - stopping structural energy minimisation
