LAMMPS data file via write_data, version 13 Jan 2016, timestep = 296

864 atoms
1 atom types

1.5796809583508725e-01 2.5456480746164907e+01 xlo xhi
1.5063271408464768e-01 2.5335422091915341e+01 ylo yhi
1.4549729725761750e-02 4.7609166764274235e+01 zlo zhi
2.5311665692280858e+00 0.0000000000000000e+00 0.0000000000000000e+00 xy xz yz

Masses

1 26.982

Atoms # charge

1 1 0.0000000000000000e+00 2.4685847777936154e+01 3.2730023370369183e+00 1.6809184284375224e+01 0 0 0
2 1 0.0000000000000000e+00 2.5951431062550192e+01 1.5865397025952264e+01 1.6809184284375224e+01 0 0 0
3 1 0.0000000000000000e+00 1.2036591452771241e+01 3.2730023370369183e+00 1.6809184284375227e+01 0 0 0
4 1 0.0000000000000000e+00 1.3302174737385281e+01 1.5865397025952264e+01 1.6809184284375224e+01 0 0 0
5 1 0.0000000000000000e+00 4.4120745961210073e+00 2.0166590238515295e-01 1.3389683070037448e+01 0 0 0
6 1 0.0000000000000000e+00 5.6776578807350502e+00 1.2794060591300497e+01 1.3389683070037446e+01 0 0 0
7 1 0.0000000000000000e+00 1.7061330921285915e+01 2.0166590238515275e-01 1.3389683070037446e+01 0 0 0
8 1 0.0000000000000000e+00 1.8326914205899953e+01 1.2794060591300500e+01 1.3389683070037446e+01 0 0 0
9 1 0.0000000000000000e+00 4.4334259684786099e+00 4.0340127473265008e+00 1.4452557306768670e+01 0 0 0
10 1 0.0000000000000000e+00 5.6990092530926511e+00 1.6626407436241845e+01 1.4452557306768666e+01 0 0 0
11 1 0.0000000000000000e+00 1.7082682293643519e+01 4.0340127473264999e+00 1.4452557306768671e+01 0 0 0
12 1 0.0000000000000000e+00 1.8348265578257561e+01 1.6626407436241845e+01 1.4452557306768670e+01 0 0 0
13 1 0.0000000000000000e+00 2.3422953163907888e+01 2.1178824201325135e+01 1.3394190452054506e+01 0 0 0
14 1 0.0000000000000000e+00 2.2157369879293835e+01 8.5864295124097865e+00 1.3394190452054509e+01 0 0 0
15 1 0.0000000000000000e+00 1.0773696838742978e+01 2.1178824201325135e+01 1.3394190452054506e+01 0 0 0
16 1 0.0000000000000000e+00 9.5081135541289363e+00 8.5864295124097847e+00 1.3394190452054509e+01 0 0 0
17 1 0.0000000000000000e+00 2.3379749650625801e+01 2.4981903138520188e+01 1.4433098052233012e+01 0 0 0
18 1 0.0000000000000000e+00 2.2114166366011759e+01 1.2389508449604840e+01 1.4433098052233012e+01 0 0 0
19 1 0.0000000000000000e+00 1.0730493325460893e+01 2.4981903138520188e+01 1.4433098052233012e+01 0 0 0
20 1 0.0000000000000000e+00 9.4649100408468492e+00 1.2389508449604838e+01 1.4433098052233012e+01 0 0 0
21 1 0.0000000000000000e+00 2.0920453784007758e+01 3.6571783488418732e+00 1.5694103491993127e+01 0 0 0
22 1 0.0000000000000000e+00 2.2186037068621804e+01 1.6249573037757219e+01 1.5694103491993124e+01 0 0 0
23 1 0.0000000000000000e+00 8.2711974588428596e+00 3.6571783488418728e+00 1.5694103491993127e+01 0 0 0
24 1 0.0000000000000000e+00 9.5367807434568999e+00 1.6249573037757219e+01 1.5694103491993124e+01 0 0 0
25 1 0.0000000000000000e+00 2.7182091200882798e+01 2.0819437208462826e+01 1.4460450871087467e+01 0 0 0
26 1 0.0000000000000000e+00 2.5916507916268756e+01 8.2270425195474779e+00 1.4460450871087472e+01 0 0 0
27 1 0.0000000000000000e+00 1.4532834875717892e+01 2.0819437208462823e+01 1.4460450871087470e+01 0 0 0
28 1 0.0000000000000000e+00 1.3267251591103847e+01 8.2270425195474779e+00 1.4460450871087472e+01 0 0 0
29 1 0.0000000000000000e+00 2.7227548828024965e+01 2.4656849480966208e+01 1.5681652968425231e+01 0 0 0
30 1 0.0000000000000000e+00 2.5961965543410923e+01 1.2064454792050858e+01 1.5681652968425233e+01 0 0 0
31 1 0.0000000000000000e+00 1.4578292502860048e+01 2.4656849480966208e+01 1.5681652968425231e+01 0 0 0
32 1 0.0000000000000000e+00 1.3312709218246011e+01 1.2064454792050860e+01 1.5681652968425233e+01 0 0 0
33 1 0.0000000000000000e+00 5.7163021086571364e+00 2.0399134268783495e+01 1.5644860314464021e+01 0 0 0
34 1 0.0000000000000000e+00 4.4507188240430926e+00 7.8067395798681458e+00 1.5644860314464024e+01 0 0 0
35 1 0.0000000000000000e+00 1.8365558433822045e+01 2.0399134268783492e+01 1.5644860314464021e+01 0 0 0
36 1 0.0000000000000000e+00 1.7099975149208003e+01 7.8067395798681458e+00 1.5644860314464021e+01 0 0 0
37 1 0.0000000000000000e+00 2.5160437393886759e+00 6.0857207633655594e+00 1.4404077578155036e+01 0 0 0
38 1 0.0000000000000000e+00 3.7816270240027197e+00 1.8678115452280906e+01 1.4404077578155031e+01 0 0 0
39 1 0.0000000000000000e+00 1.5165300064553586e+01 6.0857207633655603e+00 1.4404077578155036e+01 0 0 0
40 1 0.0000000000000000e+00 1.6430883349167633e+01 1.8678115452280906e+01 1.4404077578155034e+01 0 0 0
41 1 0.0000000000000000e+00 6.3003899408632593e+00 1.8945348428286060e+00 1.4431221126870113e+01 0 0 0
42 1 0.0000000000000000e+00 7.5659732254773013e+00 1.4486929531743952e+01 1.4431221126870110e+01 0 0 0
43 1 0.0000000000000000e+00 1.8949646266028161e+01 1.8945348428286060e+00 1.4431221126870113e+01 0 0 0
44 1 0.0000000000000000e+00 2.0215229550642213e+01 1.4486929531743952e+01 1.4431221126870113e+01 0 0 0
45 1 0.0000000000000000e+00 6.3244607337833756e+00 5.7691588481603775e+00 1.5662321580235835e+01 0 0 0
46 1 0.0000000000000000e+00 7.5900440183974194e+00 1.8361553537075725e+01 1.5662321580235830e+01 0 0 0
47 1 0.0000000000000000e+00 1.8973717058948278e+01 5.7691588481603784e+00 1.5662321580235835e+01 0 0 0
48 1 0.0000000000000000e+00 2.0239300343562324e+01 1.8361553537075725e+01 1.5662321580235830e+01 0 0 0
49 1 0.0000000000000000e+00 2.5284392248775202e+01 2.2884411834089381e+01 1.4430968130275724e+01 0 0 0
50 1 0.0000000000000000e+00 2.4018808964161167e+01 1.0292017145174034e+01 1.4430968130275724e+01 0 0 0
51 1 0.0000000000000000e+00 1.2635135923610294e+01 2.2884411834089381e+01 1.4430968130275724e+01 0 0 0
52 1 0.0000000000000000e+00 1.1369552638996257e+01 1.0292017145174036e+01 1.4430968130275728e+01 0 0 0
53 1 0.0000000000000000e+00 2.2786822371759264e+01 1.5531798223394793e+00 1.5693576959955145e+01 0 0 0
54 1 0.0000000000000000e+00 2.4052405656373303e+01 1.4145574511254825e+01 1.5693576959955145e+01 0 0 0
55 1 0.0000000000000000e+00 1.0137566046594353e+01 1.5531798223394802e+00 1.5693576959955147e+01 0 0 0
56 1 0.0000000000000000e+00 1.1403149331208397e+01 1.4145574511254825e+01 1.5693576959955145e+01 0 0 0
57 1 0.0000000000000000e+00 2.4054352620564352e+01 6.4993930915470886e+00 1.3419435068479883e+01 0 0 0
58 1 0.0000000000000000e+00 2.5319935905178397e+01 1.9091787780462436e+01 1.3419435068479883e+01 0 0 0
59 1 0.0000000000000000e+00 1.1405096295399446e+01 6.4993930915470877e+00 1.3419435068479888e+01 0 0 0
60 1 0.0000000000000000e+00 1.2670679580013484e+01 1.9091787780462436e+01 1.3419435068479885e+01 0 0 0
61 1 0.0000000000000000e+00 3.8186433529209185e+00 2.2551080235215014e+01 1.5708029251289263e+01 0 0 0
62 1 0.0000000000000000e+00 2.5530600683068738e+00 9.9586855462996660e+00 1.5708029251289267e+01 0 0 0
63 1 0.0000000000000000e+00 1.6467899678085828e+01 2.2551080235215014e+01 1.5708029251289267e+01 0 0 0
64 1 0.0000000000000000e+00 1.5202316393471783e+01 9.9586855462996660e+00 1.5708029251289267e+01 0 0 0
65 1 0.0000000000000000e+00 2.5152494227615239e+00 2.2798128191225771e+00 1.3438665484878236e+01 0 0 0
66 1 0.0000000000000000e+00 3.7808327073755685e+00 1.4872207508037924e+01 1.3438665484878234e+01 0 0 0
67 1 0.0000000000000000e+00 1.5164505747926434e+01 2.2798128191225779e+00 1.3438665484878236e+01 0 0 0
68 1 0.0000000000000000e+00 1.6430089032540476e+01 1.4872207508037924e+01 1.3438665484878236e+01 0 0 0
69 1 0.0000000000000000e+00 8.8614793943118073e+00 2.3293261741483214e+01 1.3387726544323909e+01 0 0 0
70 1 0.0000000000000000e+00 7.5958961096977626e+00 1.0700867052567864e+01 1.3387726544323909e+01 0 0 0
71 1 0.0000000000000000e+00 2.1510735719476710e+01 2.3293261741483210e+01 1.3387726544323909e+01 0 0 0
72 1 0.0000000000000000e+00 2.0245152434862668e+01 1.0700867052567864e+01 1.3387726544323909e+01 0 0 0
73 1 0.0000000000000000e+00 2.5352140908309558e+01 5.7266627496634852e+00 1.5647318551410558e+01 0 0 0
74 1 0.0000000000000000e+00 2.6617724192923603e+01 1.8319057438578831e+01 1.5647318551410555e+01 0 0 0
75 1 0.0000000000000000e+00 1.2702884583144648e+01 5.7266627496634870e+00 1.5647318551410560e+01 0 0 0
76 1 0.0000000000000000e+00 1.3968467867758688e+01 1.8319057438578831e+01 1.5647318551410555e+01 0 0 0
77 1 0.0000000000000000e+00 3.8322154213745141e+00 1.5648475725797297e+00 1.5698195340048418e+01 0 0 0
78 1 0.0000000000000000e+00 5.0977987059885583e+00 1.4157242261495078e+01 1.5698195340048418e+01 0 0 0
79 1 0.0000000000000000e+00 1.6481471746539427e+01 1.5648475725797326e+00 1.5698195340048418e+01 0 0 0
80 1 0.0000000000000000e+00 1.7747055031153469e+01 1.4157242261495078e+01 1.5698195340048418e+01 0 0 0
81 1 0.0000000000000000e+00 3.8145680904677679e+00 5.3715811468757959e+00 1.6817829391608580e+01 0 0 0
82 1 0.0000000000000000e+00 5.0801513750818090e+00 1.7963975835791143e+01 1.6817829391608576e+01 0 0 0
83 1 0.0000000000000000e+00 1.6463824415632676e+01 5.3715811468757950e+00 1.6817829391608576e+01 0 0 0
84 1 0.0000000000000000e+00 1.7729407700246718e+01 1.7963975835791143e+01 1.6817829391608573e+01 0 0 0
85 1 0.0000000000000000e+00 2.2776711380093754e+01 2.2524340151193872e+01 1.5678812606469819e+01 0 0 0
86 1 0.0000000000000000e+00 2.1511128095479723e+01 9.9319454622785237e+00 1.5678812606469819e+01 0 0 0
87 1 0.0000000000000000e+00 1.0127455054928854e+01 2.2524340151193872e+01 1.5678812606469819e+01 0 0 0
88 1 0.0000000000000000e+00 8.8618717703148064e+00 9.9319454622785255e+00 1.5678812606469819e+01 0 0 0
89 1 0.0000000000000000e+00 2.1465282183048579e+01 2.2850849749741329e+00 1.3404321901335999e+01 0 0 0
90 1 0.0000000000000000e+00 2.2730865467662628e+01 1.4877479663889481e+01 1.3404321901335994e+01 0 0 0
91 1 0.0000000000000000e+00 8.8160258578836768e+00 2.2850849749741347e+00 1.3404321901335997e+01 0 0 0
92 1 0.0000000000000000e+00 1.0081609142497715e+01 1.4877479663889481e+01 1.3404321901335997e+01 0 0 0
93 1 0.0000000000000000e+00 2.1508139407776895e+01 6.1077370917297609e+00 1.4454763529535549e+01 0 0 0
94 1 0.0000000000000000e+00 2.2773722692390933e+01 1.8700131780645108e+01 1.4454763529535548e+01 0 0 0
95 1 0.0000000000000000e+00 8.8588830826119853e+00 6.1077370917297591e+00 1.4454763529535549e+01 0 0 0
96 1 0.0000000000000000e+00 1.0124466367226027e+01 1.8700131780645108e+01 1.4454763529535548e+01 0 0 0
97 1 0.0000000000000000e+00 2.5276370261684571e+00 2.3274236527556578e+01 1.3388957553612684e+01 0 0 0
98 1 0.0000000000000000e+00 1.2620537415544151e+00 1.0681841838641231e+01 1.3388957553612688e+01 0 0 0
99 1 0.0000000000000000e+00 1.5176893351333366e+01 2.3274236527556578e+01 1.3388957553612688e+01 0 0 0
100 1 0.0000000000000000e+00 1.3911310066719318e+01 1.0681841838641231e+01 1.3388957553612688e+01 0 0 0
101 1 0.0000000000000000e+00 2.5276019265229962e+01 1.9273490262243484e+00 1.4420673502519431e+01 0 0 0
102 1 0.0000000000000000e+00 2.6541602549844008e+01 1.4519743715139693e+01 1.4420673502519431e+01 0 0 0
103 1 0.0000000000000000e+00 1.2626762940065055e+01 1.9273490262243473e+00 1.4420673502519431e+01 0 0 0
104 1 0.0000000000000000e+00 1.3892346224679100e+01 1.4519743715139693e+01 1.4420673502519431e+01 0 0 0
105 1 0.0000000000000000e+00 6.3247734711520662e+00 2.2913153911477085e+01 1.4454990805946501e+01 0 0 0
106 1 0.0000000000000000e+00 5.0591901865380233e+00 1.0320759222561737e+01 1.4454990805946501e+01 0 0 0
107 1 0.0000000000000000e+00 1.8974029796316970e+01 2.2913153911477085e+01 1.4454990805946501e+01 0 0 0
108 1 0.0000000000000000e+00 1.7708446511702931e+01 1.0320759222561737e+01 1.4454990805946501e+01 0 0 0
109 1 0.0000000000000000e+00 1.8888511744230529e+00 3.6653260037201920e+00 1.5662655493068549e+01 0 0 0
110 1 0.0000000000000000e+00 3.1544344590370978e+00 1.6257720692635537e+01 1.5662655493068549e+01 0 0 0
111 1 0.0000000000000000e+00 1.4538107499587960e+01 3.6653260037201911e+00 1.5662655493068549e+01 0 0 0
112 1 0.0000000000000000e+00 1.5803690784202006e+01 1.6257720692635541e+01 1.5662655493068547e+01 0 0 0
113 1 0.0000000000000000e+00 8.2475120173539693e+00 2.4643434894248415e+01 1.5693937889945886e+01 0 0 0
114 1 0.0000000000000000e+00 6.9819287327399282e+00 1.2051040205333065e+01 1.5693937889945886e+01 0 0 0
115 1 0.0000000000000000e+00 2.0896768342518875e+01 2.4643434894248415e+01 1.5693937889945886e+01 0 0 0
116 1 0.0000000000000000e+00 1.9631185057904830e+01 1.2051040205333068e+01 1.5693937889945886e+01 0 0 0
117 1 0.0000000000000000e+00 6.9606385082725302e+00 4.4093147549328577e+00 1.3423649392477985e+01 0 0 0
118 1 0.0000000000000000e+00 8.2262217928865731e+00 1.7001709443848203e+01 1.3423649392477985e+01 0 0 0
119 1 0.0000000000000000e+00 1.9609894833437441e+01 4.4093147549328577e+00 1.3423649392477985e+01 0 0 0
120 1 0.0000000000000000e+00 2.0875478118051483e+01 1.7001709443848203e+01 1.3423649392477985e+01 0 0 0
121 1 0.0000000000000000e+00 2.4691794560624675e+01 2.0451063062919598e+01 1.5706710747038185e+01 0 0 0
122 1 0.0000000000000000e+00 2.3426211276010630e+01 7.8586683740042531e+00 1.5706710747038189e+01 0 0 0
123 1 0.0000000000000000e+00 1.2042538235459766e+01 2.0451063062919598e+01 1.5706710747038185e+01 0 0 0
124 1 0.0000000000000000e+00 1.0776954950845724e+01 7.8586683740042513e+00 1.5706710747038191e+01 0 0 0
125 1 0.0000000000000000e+00 2.3372335718356712e+01 1.7322978778935266e-01 1.3396905048658613e+01 0 0 0
126 1 0.0000000000000000e+00 2.4637919002970747e+01 1.2765624476704700e+01 1.3396905048658610e+01 0 0 0
127 1 0.0000000000000000e+00 1.0723079393191801e+01 1.7322978778935147e-01 1.3396905048658613e+01 0 0 0
128 1 0.0000000000000000e+00 1.1988662677805843e+01 1.2765624476704696e+01 1.3396905048658610e+01 0 0 0
129 1 0.0000000000000000e+00 2.3417320747222764e+01 4.0014085061585263e+00 1.4415294247839608e+01 0 0 0
130 1 0.0000000000000000e+00 2.4682904031836809e+01 1.6593803195073871e+01 1.4415294247839606e+01 0 0 0
131 1 0.0000000000000000e+00 1.0768064422057860e+01 4.0014085061585263e+00 1.4415294247839608e+01 0 0 0
132 1 0.0000000000000000e+00 1.2033647706671900e+01 1.6593803195073871e+01 1.4415294247839608e+01 0 0 0
133 1 0.0000000000000000e+00 4.4477613896920802e+00 2.1215755605182540e+01 1.3423776377948062e+01 0 0 0
134 1 0.0000000000000000e+00 3.1821781050780400e+00 8.6233609162671900e+00 1.3423776377948062e+01 0 0 0
135 1 0.0000000000000000e+00 1.7097017714856989e+01 2.1215755605182540e+01 1.3423776377948062e+01 0 0 0
136 1 0.0000000000000000e+00 1.5831434430242943e+01 8.6233609162671883e+00 1.3423776377948062e+01 0 0 0
137 1 0.0000000000000000e+00 4.4141221306521023e+00 2.4966609258412962e+01 1.4431232203481745e+01 0 0 0
138 1 0.0000000000000000e+00 3.1485388460380581e+00 1.2374214569497614e+01 1.4431232203481745e+01 0 0 0
139 1 0.0000000000000000e+00 1.7063378455817009e+01 2.4966609258412962e+01 1.4431232203481741e+01 0 0 0
140 1 0.0000000000000000e+00 1.5797795171202965e+01 1.2374214569497614e+01 1.4431232203481741e+01 0 0 0
141 1 0.0000000000000000e+00 8.1693267219804202e+00 2.0754097578898925e+01 1.4372019690104523e+01 0 0 0
142 1 0.0000000000000000e+00 6.9037434373663773e+00 8.1617028899835766e+00 1.4372019690104523e+01 0 0 0
143 1 0.0000000000000000e+00 2.0818583047145324e+01 2.0754097578898925e+01 1.4372019690104523e+01 0 0 0
144 1 0.0000000000000000e+00 1.9552999762531289e+01 8.1617028899835766e+00 1.4372019690104523e+01 0 0 0
145 1 0.0000000000000000e+00 2.3425913762454631e+01 2.1283254219967289e+00 2.0521429278354766e+01 0 0 0
146 1 0.0000000000000000e+00 2.4691497047068665e+01 1.4720720110912078e+01 2.0521429278354770e+01 0 0 0
147 1 0.0000000000000000e+00 1.0776657437289719e+01 2.1283254219967285e+00 2.0521429278354770e+01 0 0 0
148 1 0.0000000000000000e+00 1.2042240721903763e+01 1.4720720110912074e+01 2.0521429278354766e+01 0 0 0
149 1 0.0000000000000000e+00 5.7260595523820372e+00 2.4270533319837771e+01 1.6792824237996804e+01 0 0 0
150 1 0.0000000000000000e+00 4.4604762677679943e+00 1.1678138630922422e+01 1.6792824237996808e+01 0 0 0
151 1 0.0000000000000000e+00 1.8375315877546946e+01 2.4270533319837771e+01 1.6792824237996808e+01 0 0 0
152 1 0.0000000000000000e+00 1.7109732592932904e+01 1.1678138630922422e+01 1.6792824237996808e+01 0 0 0
153 1 0.0000000000000000e+00 3.1883909214417372e+00 2.9085231338804727e+00 1.8034635998334881e+01 0 0 0
154 1 0.0000000000000000e+00 4.4539742060557783e+00 1.5500917822795820e+01 1.8034635998334881e+01 0 0 0
155 1 0.0000000000000000e+00 1.5837647246606643e+01 2.9085231338804709e+00 1.8034635998334881e+01 0 0 0
156 1 0.0000000000000000e+00 1.7103230531220689e+01 1.5500917822795818e+01 1.8034635998334881e+01 0 0 0
157 1 0.0000000000000000e+00 2.2161997941292245e+01 2.0071162941556182e+01 1.6783408753579863e+01 0 0 0
158 1 0.0000000000000000e+00 2.0896414656678207e+01 7.4787682526408368e+00 1.6783408753579863e+01 0 0 0
159 1 0.0000000000000000e+00 9.5127416161273448e+00 2.0071162941556185e+01 1.6783408753579863e+01 0 0 0
160 1 0.0000000000000000e+00 8.2471583315133010e+00 7.4787682526408368e+00 1.6783408753579867e+01 0 0 0
161 1 0.0000000000000000e+00 2.2171231855452913e+01 2.3885415648915910e+01 1.8055530816563149e+01 0 0 0
162 1 0.0000000000000000e+00 2.0905648570838874e+01 1.1293020960000559e+01 1.8055530816563156e+01 0 0 0
163 1 0.0000000000000000e+00 9.5219755302880014e+00 2.3885415648915906e+01 1.8055530816563152e+01 0 0 0
164 1 0.0000000000000000e+00 8.2563922456739611e+00 1.1293020960000559e+01 1.8055530816563152e+01 0 0 0
165 1 0.0000000000000000e+00 1.9632794365130913e+01 2.5141936497883384e+00 1.9265835214901269e+01 0 0 0
166 1 0.0000000000000000e+00 2.0898377649744955e+01 1.5106588338703688e+01 1.9265835214901269e+01 0 0 0
167 1 0.0000000000000000e+00 6.9835380399660014e+00 2.5141936497883401e+00 1.9265835214901269e+01 0 0 0
168 1 0.0000000000000000e+00 8.2491213245800434e+00 1.5106588338703688e+01 1.9265835214901266e+01 0 0 0
169 1 0.0000000000000000e+00 2.5976501682926006e+01 1.9678017782870718e+01 1.8033476182282357e+01 0 0 0
170 1 0.0000000000000000e+00 2.4710918398311957e+01 7.0856230939553670e+00 1.8033476182282360e+01 0 0 0
171 1 0.0000000000000000e+00 1.3327245357761090e+01 1.9678017782870715e+01 1.8033476182282357e+01 0 0 0
172 1 0.0000000000000000e+00 1.2061662073147053e+01 7.0856230939553688e+00 1.8033476182282360e+01 0 0 0
173 1 0.0000000000000000e+00 2.5956659617821533e+01 2.3498883001660598e+01 1.9268134598221270e+01 0 0 0
174 1 0.0000000000000000e+00 2.4691076333207491e+01 1.0906488312745253e+01 1.9268134598221273e+01 0 0 0
175 1 0.0000000000000000e+00 1.3307403292656627e+01 2.3498883001660602e+01 1.9268134598221273e+01 0 0 0
176 1 0.0000000000000000e+00 1.2041820008042583e+01 1.0906488312745253e+01 1.9268134598221277e+01 0 0 0
177 1 0.0000000000000000e+00 4.4544106572483146e+00 1.9302679904347176e+01 1.9268543138184565e+01 0 0 0
178 1 0.0000000000000000e+00 3.1888273726342704e+00 6.7102852154318260e+00 1.9268543138184569e+01 0 0 0
179 1 0.0000000000000000e+00 1.7103666982413216e+01 1.9302679904347176e+01 1.9268543138184565e+01 0 0 0
180 1 0.0000000000000000e+00 1.5838083697799178e+01 6.7102852154318251e+00 1.9268543138184565e+01 0 0 0
181 1 0.0000000000000000e+00 1.2995886639980032e+00 5.0016556006199613e+00 1.8060853212312846e+01 0 0 0
182 1 0.0000000000000000e+00 2.5651719486120457e+00 1.7594050289535307e+01 1.8060853212312846e+01 0 0 0
183 1 0.0000000000000000e+00 1.3948844989162913e+01 5.0016556006199604e+00 1.8060853212312850e+01 0 0 0
184 1 0.0000000000000000e+00 1.5214428273776955e+01 1.7594050289535307e+01 1.8060853212312846e+01 0 0 0
185 1 0.0000000000000000e+00 5.0948108128339431e+00 8.0561961567157425e-01 1.8062409587168826e+01 0 0 0
186 1 0.0000000000000000e+00 6.3603940974479842e+00 1.3398014304586924e+01 1.8062409587168826e+01 0 0 0
187 1 0.0000000000000000e+00 1.7744067137998854e+01 8.0561961567157447e-01 1.8062409587168826e+01 0 0 0
188 1 0.0000000000000000e+00 1.9009650422612893e+01 1.3398014304586924e+01 1.8062409587168826e+01 0 0 0
189 1 0.0000000000000000e+00 5.0854898401080462e+00 4.6077490279395219e+00 1.9262128441686521e+01 0 0 0
190 1 0.0000000000000000e+00 6.3510731247220882e+00 1.7200143716854868e+01 1.9262128441686521e+01 0 0 0
191 1 0.0000000000000000e+00 1.7734746165272952e+01 4.6077490279395228e+00 1.9262128441686521e+01 0 0 0
192 1 0.0000000000000000e+00 1.9000329449886994e+01 1.7200143716854868e+01 1.9262128441686521e+01 0 0 0
193 1 0.0000000000000000e+00 2.4069222707194037e+01 2.1788496552213250e+01 1.8060702625451455e+01 0 0 0
194 1 0.0000000000000000e+00 2.2803639422579987e+01 9.1961018632979030e+00 1.8060702625451455e+01 0 0 0
195 1 0.0000000000000000e+00 1.1419966382029124e+01 2.1788496552213246e+01 1.8060702625451455e+01 0 0 0
196 1 0.0000000000000000e+00 1.0154383097415085e+01 9.1961018632979030e+00 1.8060702625451459e+01 0 0 0
197 1 0.0000000000000000e+00 2.1528796099856432e+01 4.1222822275652210e-01 1.9262518677731958e+01 0 0 0
198 1 0.0000000000000000e+00 2.2794379384470474e+01 1.3004622911671870e+01 1.9262518677731958e+01 0 0 0
199 1 0.0000000000000000e+00 8.8795397746915210e+00 4.1222822275652221e-01 1.9262518677731958e+01 0 0 0
200 1 0.0000000000000000e+00 1.0145123059305561e+01 1.3004622911671870e+01 1.9262518677731958e+01 0 0 0
201 1 0.0000000000000000e+00 2.2806657685666995e+01 5.3799903624707479e+00 1.6788508021643434e+01 0 0 0
202 1 0.0000000000000000e+00 2.4072240970281044e+01 1.7972385051386095e+01 1.6788508021643430e+01 0 0 0
203 1 0.0000000000000000e+00 1.0157401360502096e+01 5.3799903624707461e+00 1.6788508021643434e+01 0 0 0
204 1 0.0000000000000000e+00 1.1422984645116140e+01 1.7972385051386091e+01 1.6788508021643430e+01 0 0 0
205 1 0.0000000000000000e+00 2.5576702045923003e+00 2.1397075151140758e+01 1.9261990815587509e+01 0 0 0
206 1 0.0000000000000000e+00 1.2920869199782581e+00 8.8046804622254129e+00 1.9261990815587517e+01 0 0 0
207 1 0.0000000000000000e+00 1.5206926529757212e+01 2.1397075151140758e+01 1.9261990815587509e+01 0 0 0
208 1 0.0000000000000000e+00 1.3941343245143162e+01 8.8046804622254129e+00 1.9261990815587517e+01 0 0 0
209 1 0.0000000000000000e+00 1.3015014561362948e+00 1.1779444829979284e+00 1.6780156927015550e+01 0 0 0
210 1 0.0000000000000000e+00 2.5670847407503365e+00 1.3770339171913275e+01 1.6780156927015550e+01 0 0 0
211 1 0.0000000000000000e+00 1.3950757781301201e+01 1.1779444829979280e+00 1.6780156927015554e+01 0 0 0
212 1 0.0000000000000000e+00 1.5216341065915245e+01 1.3770339171913275e+01 1.6780156927015550e+01 0 0 0
213 1 0.0000000000000000e+00 7.6191582466313568e+00 2.2155134099704910e+01 1.6779638110515204e+01 0 0 0
214 1 0.0000000000000000e+00 6.3535749620173130e+00 9.5627394107895629e+00 1.6779638110515208e+01 0 0 0
215 1 0.0000000000000000e+00 2.0268414571796253e+01 2.2155134099704910e+01 1.6779638110515204e+01 0 0 0
216 1 0.0000000000000000e+00 1.9002831287182214e+01 9.5627394107895647e+00 1.6779638110515204e+01 0 0 0
217 1 0.0000000000000000e+00 2.4060698338195333e+01 4.6116839519823642e+00 1.9266264693659142e+01 0 0 0
218 1 0.0000000000000000e+00 2.5326281622809375e+01 1.7204078640897713e+01 1.9266264693659139e+01 0 0 0
219 1 0.0000000000000000e+00 1.1411442013030420e+01 4.6116839519823651e+00 1.9266264693659142e+01 0 0 0
220 1 0.0000000000000000e+00 1.2677025297644466e+01 1.7204078640897713e+01 1.9266264693659139e+01 0 0 0
221 1 0.0000000000000000e+00 2.5549739584417588e+00 4.1632483778296514e-01 1.9265170511757585e+01 0 0 0
222 1 0.0000000000000000e+00 3.8205572430558017e+00 1.3008719526698314e+01 1.9265170511757582e+01 0 0 0
223 1 0.0000000000000000e+00 1.5204230283606668e+01 4.1632483778296664e-01 1.9265170511757582e+01 0 0 0
224 1 0.0000000000000000e+00 1.6469813568220712e+01 1.3008719526698314e+01 1.9265170511757582e+01 0 0 0
225 1 0.0000000000000000e+00 2.5540934163489610e+00 4.2258783024170903e+00 2.0517779399060032e+01 0 0 0
226 1 0.0000000000000000e+00 3.8196767009630013e+00 1.6818272991332439e+01 2.0517779399060029e+01 0 0 0
227 1 0.0000000000000000e+00 1.5203349741513868e+01 4.2258783024170921e+00 2.0517779399060032e+01 0 0 0
228 1 0.0000000000000000e+00 1.6468933026127910e+01 1.6818272991332439e+01 2.0517779399060029e+01 0 0 0
229 1 0.0000000000000000e+00 2.1529861976221394e+01 2.1398460002020709e+01 1.9266295909620776e+01 0 0 0
230 1 0.0000000000000000e+00 2.0264278691607355e+01 8.8060653131053641e+00 1.9266295909620776e+01 0 0 0
231 1 0.0000000000000000e+00 8.8806056510564932e+00 2.1398460002020713e+01 1.9266295909620773e+01 0 0 0
232 1 0.0000000000000000e+00 7.6150223664424468e+00 8.8060653131053641e+00 1.9266295909620776e+01 0 0 0
233 1 0.0000000000000000e+00 2.0268561440333158e+01 1.1837665890700824e+00 1.6783662238139101e+01 0 0 0
234 1 0.0000000000000000e+00 2.1534144724947208e+01 1.3776161277985429e+01 1.6783662238139097e+01 0 0 0
235 1 0.0000000000000000e+00 7.6193051151682543e+00 1.1837665890700824e+00 1.6783662238139101e+01 0 0 0
236 1 0.0000000000000000e+00 8.8848883997822963e+00 1.3776161277985429e+01 1.6783662238139101e+01 0 0 0
237 1 0.0000000000000000e+00 2.0265452826194238e+01 5.0082358918224124e+00 1.8033768788480192e+01 0 0 0
238 1 0.0000000000000000e+00 2.1531036110808273e+01 1.7600630580737757e+01 1.8033768788480188e+01 0 0 0
239 1 0.0000000000000000e+00 7.6161965010293251e+00 5.0082358918224132e+00 1.8033768788480192e+01 0 0 0
240 1 0.0000000000000000e+00 8.8817797856433689e+00 1.7600630580737761e+01 1.8033768788480192e+01 0 0 0
241 1 0.0000000000000000e+00 2.6594922210768008e+01 2.2176196999535392e+01 1.6794168167476190e+01 0 0 0
242 1 0.0000000000000000e+00 2.5329338926153973e+01 9.5838023106200456e+00 1.6794168167476190e+01 0 0 0
243 1 0.0000000000000000e+00 1.3945665885603107e+01 2.2176196999535396e+01 1.6794168167476190e+01 0 0 0
244 1 0.0000000000000000e+00 1.2680082600989060e+01 9.5838023106200456e+00 1.6794168167476194e+01 0 0 0
245 1 0.0000000000000000e+00 2.4069602560369283e+01 8.0055646859843743e-01 1.8056246872755800e+01 0 0 0
246 1 0.0000000000000000e+00 2.5335185844983329e+01 1.3392951157513785e+01 1.8056246872755796e+01 0 0 0
247 1 0.0000000000000000e+00 1.1420346235204383e+01 8.0055646859843677e-01 1.8056246872755800e+01 0 0 0
248 1 0.0000000000000000e+00 1.2685929519818426e+01 1.3392951157513785e+01 1.8056246872755800e+01 0 0 0
249 1 0.0000000000000000e+00 5.1041512335940480e+00 2.1774573891953427e+01 1.8033241699277408e+01 0 0 0
250 1 0.0000000000000000e+00 3.8385679489800104e+00 9.1821792030380820e+00 1.8033241699277408e+01 0 0 0
251 1 0.0000000000000000e+00 1.7753407558758962e+01 2.1774573891953430e+01 1.8033241699277401e+01 0 0 0
252 1 0.0000000000000000e+00 1.6487824274144913e+01 9.1821792030380820e+00 1.8033241699277411e+01 0 0 0
253 1 0.0000000000000000e+00 6.6064544672030823e-01 2.5111225291855930e+00 1.9261366468263919e+01 0 0 0
254 1 0.0000000000000000e+00 1.9262287313343527e+00 1.5103517218100940e+01 1.9261366468263915e+01 0 0 0
255 1 0.0000000000000000e+00 1.3309901771885219e+01 2.5111225291855930e+00 1.9261366468263915e+01 0 0 0
256 1 0.0000000000000000e+00 1.4575485056499261e+01 1.5103517218100940e+01 1.9261366468263915e+01 0 0 0
257 1 0.0000000000000000e+00 6.9819424100873384e+00 2.3494042203814775e+01 1.9260397833405786e+01 0 0 0
258 1 0.0000000000000000e+00 5.7163591254732928e+00 1.0901647514899429e+01 1.9260397833405783e+01 0 0 0
259 1 0.0000000000000000e+00 1.9631198735252244e+01 2.3494042203814775e+01 1.9260397833405783e+01 0 0 0
260 1 0.0000000000000000e+00 1.8365615450638202e+01 1.0901647514899427e+01 1.9260397833405786e+01 0 0 0
261 1 0.0000000000000000e+00 5.7334892813607157e+00 3.2784001152995415e+00 1.6790936142535571e+01 0 0 0
262 1 0.0000000000000000e+00 6.9990725659747586e+00 1.5870794804214887e+01 1.6790936142535571e+01 0 0 0
263 1 0.0000000000000000e+00 1.8382745606525624e+01 3.2784001152995406e+00 1.6790936142535571e+01 0 0 0
264 1 0.0000000000000000e+00 1.9648328891139670e+01 1.5870794804214887e+01 1.6790936142535571e+01 0 0 0
265 1 0.0000000000000000e+00 2.3427555819456732e+01 1.9298565343709715e+01 1.9257425948143368e+01 0 0 0
266 1 0.0000000000000000e+00 2.2161972534842697e+01 6.7061706547943674e+00 1.9257425948143375e+01 0 0 0
267 1 0.0000000000000000e+00 1.0778299494291829e+01 1.9298565343709715e+01 1.9257425948143371e+01 0 0 0
268 1 0.0000000000000000e+00 9.5127162096777873e+00 6.7061706547943674e+00 1.9257425948143375e+01 0 0 0
269 1 0.0000000000000000e+00 2.4694286652758219e+01 2.4260257634550822e+01 1.6779659622647333e+01 0 0 0
270 1 0.0000000000000000e+00 2.3428703368144181e+01 1.1667862945635475e+01 1.6779659622647333e+01 0 0 0
271 1 0.0000000000000000e+00 1.2045030327593313e+01 2.4260257634550822e+01 1.6779659622647333e+01 0 0 0
272 1 0.0000000000000000e+00 1.0779447042979267e+01 1.1667862945635475e+01 1.6779659622647333e+01 0 0 0
273 1 0.0000000000000000e+00 2.2170141307856429e+01 2.9048752213389317e+00 1.8061550343822280e+01 0 0 0
274 1 0.0000000000000000e+00 2.3435724592470464e+01 1.5497269910254278e+01 1.8061550343822280e+01 0 0 0
275 1 0.0000000000000000e+00 9.5208849826915198e+00 2.9048752213389317e+00 1.8061550343822283e+01 0 0 0
276 1 0.0000000000000000e+00 1.0786468267305558e+01 1.5497269910254278e+01 1.8061550343822280e+01 0 0 0
277 1 0.0000000000000000e+00 3.1943720360950012e+00 2.0070201018571844e+01 1.6794551397488831e+01 0 0 0
278 1 0.0000000000000000e+00 1.9287887514809614e+00 7.4778063296564978e+00 1.6794551397488828e+01 0 0 0
279 1 0.0000000000000000e+00 1.5843628361259913e+01 2.0070201018571847e+01 1.6794551397488828e+01 0 0 0
280 1 0.0000000000000000e+00 1.4578045076645862e+01 7.4778063296564978e+00 1.6794551397488831e+01 0 0 0
281 1 0.0000000000000000e+00 3.2002159900063436e+00 2.3889988353046835e+01 1.8062010912542842e+01 0 0 0
282 1 0.0000000000000000e+00 1.9346327053922994e+00 1.1297593664131490e+01 1.8062010912542842e+01 0 0 0
283 1 0.0000000000000000e+00 1.5849472315171251e+01 2.3889988353046839e+01 1.8062010912542842e+01 0 0 0
284 1 0.0000000000000000e+00 1.4583889030557209e+01 1.1297593664131490e+01 1.8062010912542842e+01 0 0 0
285 1 0.0000000000000000e+00 6.9915571951657531e+00 1.9690292087695127e+01 1.8060731329597552e+01 0 0 0